V -t * -v 1.0a5 -a 0
A -t * -n 1 -p 0 -o 0x7fffffff -c 30 -a 1
A -t * -h 1 -m 1073741823 -s 0
c -t * -i 4 -n Blue
c -t * -i 1 -n Red
c -t * -i 2 -n Brown
c -t * -i 3 -n Green
n -t * -a 4 -s 4 -S UP -v circle -c black -i black
n -t * -a 0 -s 0 -S UP -v circle -c black -i black
n -t * -a 5 -s 5 -S UP -v circle -c black -i black
n -t * -a 1 -s 1 -S UP -v circle -c black -i black
n -t * -a 6 -s 6 -S UP -v circle -c black -i black
n -t * -a 2 -s 2 -S UP -v circle -c black -i black
n -t * -a 7 -s 7 -S UP -v circle -c black -i black
n -t * -a 3 -s 3 -S UP -v circle -c black -i black
l -t * -s 0 -d 3 -S UP -r 10000000 -D 0.0050000000000000001 -c black -o down
l -t * -s 1 -d 3 -S UP -r 10000000 -D 0.0050000000000000001 -c black -o right
l -t * -s 2 -d 3 -S UP -r 10000000 -D 0.0050000000000000001 -c black -o up
l -t * -s 3 -d 4 -S UP -r 1500000 -D 0.014999999999999999 -c black -o right
l -t * -s 5 -d 4 -S UP -r 10000000 -D 0.0050000000000000001 -c black -o down
l -t * -s 7 -d 4 -S UP -r 10000000 -D 0.0050000000000000001 -c black -o up
l -t * -s 6 -d 4 -S UP -r 10000000 -D 0.0050000000000000001 -c black -o left
+ -t 0.4 -s 0 -d 3 -p tcp -e 40 -c 1 -i 0 -a 1 -x {0.0 5.0 0 ------- null}
- -t 0.4 -s 0 -d 3 -p tcp -e 40 -c 1 -i 0 -a 1 -x {0.0 5.0 0 ------- null}
h -t 0.4 -s 0 -d 3 -p tcp -e 40 -c 1 -i 0 -a 1 -x {0.0 5.0 -1 ------- null}
r -t 0.405032 -s 0 -d 3 -p tcp -e 40 -c 1 -i 0 -a 1 -x {0.0 5.0 0 ------- null}
+ -t 0.405032 -s 3 -d 4 -p tcp -e 40 -c 1 -i 0 -a 1 -x {0.0 5.0 0 ------- null}
- -t 0.405032 -s 3 -d 4 -p tcp -e 40 -c 1 -i 0 -a 1 -x {0.0 5.0 0 ------- null}
h -t 0.405032 -s 3 -d 4 -p tcp -e 40 -c 1 -i 0 -a 1 -x {0.0 5.0 -1 ------- null}
r -t 0.420245333333333 -s 3 -d 4 -p tcp -e 40 -c 1 -i 0 -a 1 -x {0.0 5.0 0 ------- null}
+ -t 0.420245333333333 -s 4 -d 5 -p tcp -e 40 -c 1 -i 0 -a 1 -x {0.0 5.0 0 ------- null}
- -t 0.420245333333333 -s 4 -d 5 -p tcp -e 40 -c 1 -i 0 -a 1 -x {0.0 5.0 0 ------- null}
h -t 0.420245333333333 -s 4 -d 5 -p tcp -e 40 -c 1 -i 0 -a 1 -x {0.0 5.0 -1 ------- null}
r -t 0.425277333333333 -s 4 -d 5 -p tcp -e 40 -c 1 -i 0 -a 1 -x {0.0 5.0 0 ------- null}
+ -t 0.425277333333333 -s 5 -d 4 -p ack -e 40 -c 1 -i 1 -a 1 -x {5.0 0.0 0 ------- null}
- -t 0.425277333333333 -s 5 -d 4 -p ack -e 40 -c 1 -i 1 -a 1 -x {5.0 0.0 0 ------- null}
h -t 0.425277333333333 -s 5 -d 4 -p ack -e 40 -c 1 -i 1 -a 1 -x {5.0 0.0 -1 ------- null}
r -t 0.430309333333333 -s 5 -d 4 -p ack -e 40 -c 1 -i 1 -a 1 -x {5.0 0.0 0 ------- null}
+ -t 0.430309333333333 -s 4 -d 3 -p ack -e 40 -c 1 -i 1 -a 1 -x {5.0 0.0 0 ------- null}
- -t 0.430309333333333 -s 4 -d 3 -p ack -e 40 -c 1 -i 1 -a 1 -x {5.0 0.0 0 ------- null}
h -t 0.430309333333333 -s 4 -d 3 -p ack -e 40 -c 1 -i 1 -a 1 -x {5.0 0.0 -1 ------- null}
r -t 0.445522666666667 -s 4 -d 3 -p ack -e 40 -c 1 -i 1 -a 1 -x {5.0 0.0 0 ------- null}
+ -t 0.445522666666667 -s 3 -d 0 -p ack -e 40 -c 1 -i 1 -a 1 -x {5.0 0.0 0 ------- null}
- -t 0.445522666666667 -s 3 -d 0 -p ack -e 40 -c 1 -i 1 -a 1 -x {5.0 0.0 0 ------- null}
h -t 0.445522666666667 -s 3 -d 0 -p ack -e 40 -c 1 -i 1 -a 1 -x {5.0 0.0 -1 ------- null}
r -t 0.450554666666667 -s 3 -d 0 -p ack -e 40 -c 1 -i 1 -a 1 -x {5.0 0.0 0 ------- null}
+ -t 0.450554666666667 -s 0 -d 3 -p tcp -e 1040 -c 1 -i 2 -a 1 -x {0.0 5.0 1 ------- null}
- -t 0.450554666666667 -s 0 -d 3 -p tcp -e 1040 -c 1 -i 2 -a 1 -x {0.0 5.0 1 ------- null}
h -t 0.450554666666667 -s 0 -d 3 -p tcp -e 1040 -c 1 -i 2 -a 1 -x {0.0 5.0 -1 ------- null}
+ -t 0.450554666666667 -s 0 -d 3 -p tcp -e 1040 -c 1 -i 3 -a 1 -x {0.0 5.0 2 ------- null}
- -t 0.451386666666667 -s 0 -d 3 -p tcp -e 1040 -c 1 -i 3 -a 1 -x {0.0 5.0 2 ------- null}
h -t 0.451386666666667 -s 0 -d 3 -p tcp -e 1040 -c 1 -i 3 -a 1 -x {0.0 5.0 -1 ------- null}
r -t 0.456386666666667 -s 0 -d 3 -p tcp -e 1040 -c 1 -i 2 -a 1 -x {0.0 5.0 1 ------- null}
+ -t 0.456386666666667 -s 3 -d 4 -p tcp -e 1040 -c 1 -i 2 -a 1 -x {0.0 5.0 1 ------- null}
- -t 0.456386666666667 -s 3 -d 4 -p tcp -e 1040 -c 1 -i 2 -a 1 -x {0.0 5.0 1 ------- null}
h -t 0.456386666666667 -s 3 -d 4 -p tcp -e 1040 -c 1 -i 2 -a 1 -x {0.0 5.0 -1 ------- null}
r -t 0.457218666666667 -s 0 -d 3 -p tcp -e 1040 -c 1 -i 3 -a 1 -x {0.0 5.0 2 ------- null}
+ -t 0.457218666666667 -s 3 -d 4 -p tcp -e 1040 -c 1 -i 3 -a 1 -x {0.0 5.0 2 ------- null}
- -t 0.461933333333333 -s 3 -d 4 -p tcp -e 1040 -c 1 -i 3 -a 1 -x {0.0 5.0 2 ------- null}
h -t 0.461933333333333 -s 3 -d 4 -p tcp -e 1040 -c 1 -i 3 -a 1 -x {0.0 5.0 -1 ------- null}
r -t 0.476933333333333 -s 3 -d 4 -p tcp -e 1040 -c 1 -i 2 -a 1 -x {0.0 5.0 1 ------- null}
+ -t 0.476933333333333 -s 4 -d 5 -p tcp -e 1040 -c 1 -i 2 -a 1 -x {0.0 5.0 1 ------- null}
- -t 0.476933333333333 -s 4 -d 5 -p tcp -e 1040 -c 1 -i 2 -a 1 -x {0.0 5.0 1 ------- null}
h -t 0.476933333333333 -s 4 -d 5 -p tcp -e 1040 -c 1 -i 2 -a 1 -x {0.0 5.0 -1 ------- null}
r -t 0.48248 -s 3 -d 4 -p tcp -e 1040 -c 1 -i 3 -a 1 -x {0.0 5.0 2 ------- null}
+ -t 0.48248 -s 4 -d 5 -p tcp -e 1040 -c 1 -i 3 -a 1 -x {0.0 5.0 2 ------- null}
- -t 0.48248 -s 4 -d 5 -p tcp -e 1040 -c 1 -i 3 -a 1 -x {0.0 5.0 2 ------- null}
h -t 0.48248 -s 4 -d 5 -p tcp -e 1040 -c 1 -i 3 -a 1 -x {0.0 5.0 -1 ------- null}
r -t 0.482765333333333 -s 4 -d 5 -p tcp -e 1040 -c 1 -i 2 -a 1 -x {0.0 5.0 1 ------- null}
+ -t 0.482765333333333 -s 5 -d 4 -p ack -e 40 -c 1 -i 4 -a 1 -x {5.0 0.0 1 ------- null}
- -t 0.482765333333333 -s 5 -d 4 -p ack -e 40 -c 1 -i 4 -a 1 -x {5.0 0.0 1 ------- null}
h -t 0.482765333333333 -s 5 -d 4 -p ack -e 40 -c 1 -i 4 -a 1 -x {5.0 0.0 -1 ------- null}
r -t 0.487797333333333 -s 5 -d 4 -p ack -e 40 -c 1 -i 4 -a 1 -x {5.0 0.0 1 ------- null}
+ -t 0.487797333333333 -s 4 -d 3 -p ack -e 40 -c 1 -i 4 -a 1 -x {5.0 0.0 1 ------- null}
- -t 0.487797333333333 -s 4 -d 3 -p ack -e 40 -c 1 -i 4 -a 1 -x {5.0 0.0 1 ------- null}
h -t 0.487797333333333 -s 4 -d 3 -p ack -e 40 -c 1 -i 4 -a 1 -x {5.0 0.0 -1 ------- null}
r -t 0.488312 -s 4 -d 5 -p tcp -e 1040 -c 1 -i 3 -a 1 -x {0.0 5.0 2 ------- null}
+ -t 0.488312 -s 5 -d 4 -p ack -e 40 -c 1 -i 5 -a 1 -x {5.0 0.0 2 ------- null}
- -t 0.488312 -s 5 -d 4 -p ack -e 40 -c 1 -i 5 -a 1 -x {5.0 0.0 2 ------- null}
h -t 0.488312 -s 5 -d 4 -p ack -e 40 -c 1 -i 5 -a 1 -x {5.0 0.0 -1 ------- null}
r -t 0.493344 -s 5 -d 4 -p ack -e 40 -c 1 -i 5 -a 1 -x {5.0 0.0 2 ------- null}
+ -t 0.493344 -s 4 -d 3 -p ack -e 40 -c 1 -i 5 -a 1 -x {5.0 0.0 2 ------- null}
- -t 0.493344 -s 4 -d 3 -p ack -e 40 -c 1 -i 5 -a 1 -x {5.0 0.0 2 ------- null}
h -t 0.493344 -s 4 -d 3 -p ack -e 40 -c 1 -i 5 -a 1 -x {5.0 0.0 -1 ------- null}
r -t 0.503010666666667 -s 4 -d 3 -p ack -e 40 -c 1 -i 4 -a 1 -x {5.0 0.0 1 ------- null}
+ -t 0.503010666666667 -s 3 -d 0 -p ack -e 40 -c 1 -i 4 -a 1 -x {5.0 0.0 1 ------- null}
- -t 0.503010666666667 -s 3 -d 0 -p ack -e 40 -c 1 -i 4 -a 1 -x {5.0 0.0 1 ------- null}
h -t 0.503010666666667 -s 3 -d 0 -p ack -e 40 -c 1 -i 4 -a 1 -x {5.0 0.0 -1 ------- null}
r -t 0.508042666666667 -s 3 -d 0 -p ack -e 40 -c 1 -i 4 -a 1 -x {5.0 0.0 1 ------- null}
+ -t 0.508042666666667 -s 0 -d 3 -p tcp -e 1040 -c 1 -i 6 -a 1 -x {0.0 5.0 3 ------- null}
- -t 0.508042666666667 -s 0 -d 3 -p tcp -e 1040 -c 1 -i 6 -a 1 -x {0.0 5.0 3 ------- null}
h -t 0.508042666666667 -s 0 -d 3 -p tcp -e 1040 -c 1 -i 6 -a 1 -x {0.0 5.0 -1 ------- null}
+ -t 0.508042666666667 -s 0 -d 3 -p tcp -e 1040 -c 1 -i 7 -a 1 -x {0.0 5.0 4 ------- null}
r -t 0.508557333333333 -s 4 -d 3 -p ack -e 40 -c 1 -i 5 -a 1 -x {5.0 0.0 2 ------- null}
+ -t 0.508557333333333 -s 3 -d 0 -p ack -e 40 -c 1 -i 5 -a 1 -x {5.0 0.0 2 ------- null}
- -t 0.508557333333333 -s 3 -d 0 -p ack -e 40 -c 1 -i 5 -a 1 -x {5.0 0.0 2 ------- null}
h -t 0.508557333333333 -s 3 -d 0 -p ack -e 40 -c 1 -i 5 -a 1 -x {5.0 0.0 -1 ------- null}
- -t 0.508874666666667 -s 0 -d 3 -p tcp -e 1040 -c 1 -i 7 -a 1 -x {0.0 5.0 4 ------- null}
h -t 0.508874666666667 -s 0 -d 3 -p tcp -e 1040 -c 1 -i 7 -a 1 -x {0.0 5.0 -1 ------- null}
r -t 0.513589333333333 -s 3 -d 0 -p ack -e 40 -c 1 -i 5 -a 1 -x {5.0 0.0 2 ------- null}
+ -t 0.513589333333333 -s 0 -d 3 -p tcp -e 1040 -c 1 -i 8 -a 1 -x {0.0 5.0 5 ------- null}
- -t 0.513589333333333 -s 0 -d 3 -p tcp -e 1040 -c 1 -i 8 -a 1 -x {0.0 5.0 5 ------- null}
h -t 0.513589333333333 -s 0 -d 3 -p tcp -e 1040 -c 1 -i 8 -a 1 -x {0.0 5.0 -1 ------- null}
+ -t 0.513589333333333 -s 0 -d 3 -p tcp -e 1040 -c 1 -i 9 -a 1 -x {0.0 5.0 6 ------- null}
r -t 0.513874666666667 -s 0 -d 3 -p tcp -e 1040 -c 1 -i 6 -a 1 -x {0.0 5.0 3 ------- null}
+ -t 0.513874666666667 -s 3 -d 4 -p tcp -e 1040 -c 1 -i 6 -a 1 -x {0.0 5.0 3 ------- null}
- -t 0.513874666666667 -s 3 -d 4 -p tcp -e 1040 -c 1 -i 6 -a 1 -x {0.0 5.0 3 ------- null}
h -t 0.513874666666667 -s 3 -d 4 -p tcp -e 1040 -c 1 -i 6 -a 1 -x {0.0 5.0 -1 ------- null}
- -t 0.514421333333333 -s 0 -d 3 -p tcp -e 1040 -c 1 -i 9 -a 1 -x {0.0 5.0 6 ------- null}
h -t 0.514421333333333 -s 0 -d 3 -p tcp -e 1040 -c 1 -i 9 -a 1 -x {0.0 5.0 -1 ------- null}
r -t 0.514706666666667 -s 0 -d 3 -p tcp -e 1040 -c 1 -i 7 -a 1 -x {0.0 5.0 4 ------- null}
+ -t 0.514706666666667 -s 3 -d 4 -p tcp -e 1040 -c 1 -i 7 -a 1 -x {0.0 5.0 4 ------- null}
r -t 0.519421333333333 -s 0 -d 3 -p tcp -e 1040 -c 1 -i 8 -a 1 -x {0.0 5.0 5 ------- null}
+ -t 0.519421333333333 -s 3 -d 4 -p tcp -e 1040 -c 1 -i 8 -a 1 -x {0.0 5.0 5 ------- null}
- -t 0.519421333333333 -s 3 -d 4 -p tcp -e 1040 -c 1 -i 7 -a 1 -x {0.0 5.0 4 ------- null}
h -t 0.519421333333333 -s 3 -d 4 -p tcp -e 1040 -c 1 -i 7 -a 1 -x {0.0 5.0 -1 ------- null}
r -t 0.520253333333333 -s 0 -d 3 -p tcp -e 1040 -c 1 -i 9 -a 1 -x {0.0 5.0 6 ------- null}
+ -t 0.520253333333333 -s 3 -d 4 -p tcp -e 1040 -c 1 -i 9 -a 1 -x {0.0 5.0 6 ------- null}
- -t 0.524968 -s 3 -d 4 -p tcp -e 1040 -c 1 -i 8 -a 1 -x {0.0 5.0 5 ------- null}
h -t 0.524968 -s 3 -d 4 -p tcp -e 1040 -c 1 -i 8 -a 1 -x {0.0 5.0 -1 ------- null}
- -t 0.530514666666667 -s 3 -d 4 -p tcp -e 1040 -c 1 -i 9 -a 1 -x {0.0 5.0 6 ------- null}
h -t 0.530514666666667 -s 3 -d 4 -p tcp -e 1040 -c 1 -i 9 -a 1 -x {0.0 5.0 -1 ------- null}
r -t 0.534421333333333 -s 3 -d 4 -p tcp -e 1040 -c 1 -i 6 -a 1 -x {0.0 5.0 3 ------- null}
+ -t 0.534421333333333 -s 4 -d 5 -p tcp -e 1040 -c 1 -i 6 -a 1 -x {0.0 5.0 3 ------- null}
- -t 0.534421333333333 -s 4 -d 5 -p tcp -e 1040 -c 1 -i 6 -a 1 -x {0.0 5.0 3 ------- null}
h -t 0.534421333333333 -s 4 -d 5 -p tcp -e 1040 -c 1 -i 6 -a 1 -x {0.0 5.0 -1 ------- null}
r -t 0.539968 -s 3 -d 4 -p tcp -e 1040 -c 1 -i 7 -a 1 -x {0.0 5.0 4 ------- null}
+ -t 0.539968 -s 4 -d 5 -p tcp -e 1040 -c 1 -i 7 -a 1 -x {0.0 5.0 4 ------- null}
- -t 0.539968 -s 4 -d 5 -p tcp -e 1040 -c 1 -i 7 -a 1 -x {0.0 5.0 4 ------- null}
h -t 0.539968 -s 4 -d 5 -p tcp -e 1040 -c 1 -i 7 -a 1 -x {0.0 5.0 -1 ------- null}
r -t 0.540253333333333 -s 4 -d 5 -p tcp -e 1040 -c 1 -i 6 -a 1 -x {0.0 5.0 3 ------- null}
+ -t 0.540253333333333 -s 5 -d 4 -p ack -e 40 -c 1 -i 10 -a 1 -x {5.0 0.0 3 ------- null}
- -t 0.540253333333333 -s 5 -d 4 -p ack -e 40 -c 1 -i 10 -a 1 -x {5.0 0.0 3 ------- null}
h -t 0.540253333333333 -s 5 -d 4 -p ack -e 40 -c 1 -i 10 -a 1 -x {5.0 0.0 -1 ------- null}
r -t 0.545285333333333 -s 5 -d 4 -p ack -e 40 -c 1 -i 10 -a 1 -x {5.0 0.0 3 ------- null}
+ -t 0.545285333333333 -s 4 -d 3 -p ack -e 40 -c 1 -i 10 -a 1 -x {5.0 0.0 3 ------- null}
- -t 0.545285333333333 -s 4 -d 3 -p ack -e 40 -c 1 -i 10 -a 1 -x {5.0 0.0 3 ------- null}
h -t 0.545285333333333 -s 4 -d 3 -p ack -e 40 -c 1 -i 10 -a 1 -x {5.0 0.0 -1 ------- null}
r -t 0.545514666666667 -s 3 -d 4 -p tcp -e 1040 -c 1 -i 8 -a 1 -x {0.0 5.0 5 ------- null}
+ -t 0.545514666666667 -s 4 -d 5 -p tcp -e 1040 -c 1 -i 8 -a 1 -x {0.0 5.0 5 ------- null}
- -t 0.545514666666667 -s 4 -d 5 -p tcp -e 1040 -c 1 -i 8 -a 1 -x {0.0 5.0 5 ------- null}
h -t 0.545514666666667 -s 4 -d 5 -p tcp -e 1040 -c 1 -i 8 -a 1 -x {0.0 5.0 -1 ------- null}
r -t 0.5458 -s 4 -d 5 -p tcp -e 1040 -c 1 -i 7 -a 1 -x {0.0 5.0 4 ------- null}
+ -t 0.5458 -s 5 -d 4 -p ack -e 40 -c 1 -i 11 -a 1 -x {5.0 0.0 4 ------- null}
- -t 0.5458 -s 5 -d 4 -p ack -e 40 -c 1 -i 11 -a 1 -x {5.0 0.0 4 ------- null}
h -t 0.5458 -s 5 -d 4 -p ack -e 40 -c 1 -i 11 -a 1 -x {5.0 0.0 -1 ------- null}
r -t 0.550832 -s 5 -d 4 -p ack -e 40 -c 1 -i 11 -a 1 -x {5.0 0.0 4 ------- null}
+ -t 0.550832 -s 4 -d 3 -p ack -e 40 -c 1 -i 11 -a 1 -x {5.0 0.0 4 ------- null}
- -t 0.550832 -s 4 -d 3 -p ack -e 40 -c 1 -i 11 -a 1 -x {5.0 0.0 4 ------- null}
h -t 0.550832 -s 4 -d 3 -p ack -e 40 -c 1 -i 11 -a 1 -x {5.0 0.0 -1 ------- null}
r -t 0.551061333333333 -s 3 -d 4 -p tcp -e 1040 -c 1 -i 9 -a 1 -x {0.0 5.0 6 ------- null}
+ -t 0.551061333333333 -s 4 -d 5 -p tcp -e 1040 -c 1 -i 9 -a 1 -x {0.0 5.0 6 ------- null}
- -t 0.551061333333333 -s 4 -d 5 -p tcp -e 1040 -c 1 -i 9 -a 1 -x {0.0 5.0 6 ------- null}
h -t 0.551061333333333 -s 4 -d 5 -p tcp -e 1040 -c 1 -i 9 -a 1 -x {0.0 5.0 -1 ------- null}
r -t 0.551346666666667 -s 4 -d 5 -p tcp -e 1040 -c 1 -i 8 -a 1 -x {0.0 5.0 5 ------- null}
+ -t 0.551346666666667 -s 5 -d 4 -p ack -e 40 -c 1 -i 12 -a 1 -x {5.0 0.0 5 ------- null}
- -t 0.551346666666667 -s 5 -d 4 -p ack -e 40 -c 1 -i 12 -a 1 -x {5.0 0.0 5 ------- null}
h -t 0.551346666666667 -s 5 -d 4 -p ack -e 40 -c 1 -i 12 -a 1 -x {5.0 0.0 -1 ------- null}
r -t 0.556378666666667 -s 5 -d 4 -p ack -e 40 -c 1 -i 12 -a 1 -x {5.0 0.0 5 ------- null}
+ -t 0.556378666666667 -s 4 -d 3 -p ack -e 40 -c 1 -i 12 -a 1 -x {5.0 0.0 5 ------- null}
- -t 0.556378666666667 -s 4 -d 3 -p ack -e 40 -c 1 -i 12 -a 1 -x {5.0 0.0 5 ------- null}
h -t 0.556378666666667 -s 4 -d 3 -p ack -e 40 -c 1 -i 12 -a 1 -x {5.0 0.0 -1 ------- null}
r -t 0.556893333333333 -s 4 -d 5 -p tcp -e 1040 -c 1 -i 9 -a 1 -x {0.0 5.0 6 ------- null}
+ -t 0.556893333333333 -s 5 -d 4 -p ack -e 40 -c 1 -i 13 -a 1 -x {5.0 0.0 6 ------- null}
- -t 0.556893333333333 -s 5 -d 4 -p ack -e 40 -c 1 -i 13 -a 1 -x {5.0 0.0 6 ------- null}
h -t 0.556893333333333 -s 5 -d 4 -p ack -e 40 -c 1 -i 13 -a 1 -x {5.0 0.0 -1 ------- null}
r -t 0.560498666666667 -s 4 -d 3 -p ack -e 40 -c 1 -i 10 -a 1 -x {5.0 0.0 3 ------- null}
+ -t 0.560498666666667 -s 3 -d 0 -p ack -e 40 -c 1 -i 10 -a 1 -x {5.0 0.0 3 ------- null}
- -t 0.560498666666667 -s 3 -d 0 -p ack -e 40 -c 1 -i 10 -a 1 -x {5.0 0.0 3 ------- null}
h -t 0.560498666666667 -s 3 -d 0 -p ack -e 40 -c 1 -i 10 -a 1 -x {5.0 0.0 -1 ------- null}
r -t 0.561925333333333 -s 5 -d 4 -p ack -e 40 -c 1 -i 13 -a 1 -x {5.0 0.0 6 ------- null}
+ -t 0.561925333333333 -s 4 -d 3 -p ack -e 40 -c 1 -i 13 -a 1 -x {5.0 0.0 6 ------- null}
- -t 0.561925333333333 -s 4 -d 3 -p ack -e 40 -c 1 -i 13 -a 1 -x {5.0 0.0 6 ------- null}
h -t 0.561925333333333 -s 4 -d 3 -p ack -e 40 -c 1 -i 13 -a 1 -x {5.0 0.0 -1 ------- null}
r -t 0.565530666666667 -s 3 -d 0 -p ack -e 40 -c 1 -i 10 -a 1 -x {5.0 0.0 3 ------- null}
+ -t 0.565530666666667 -s 0 -d 3 -p tcp -e 1040 -c 1 -i 14 -a 1 -x {0.0 5.0 7 ------- null}
- -t 0.565530666666667 -s 0 -d 3 -p tcp -e 1040 -c 1 -i 14 -a 1 -x {0.0 5.0 7 ------- null}
h -t 0.565530666666667 -s 0 -d 3 -p tcp -e 1040 -c 1 -i 14 -a 1 -x {0.0 5.0 -1 ------- null}
+ -t 0.565530666666667 -s 0 -d 3 -p tcp -e 1040 -c 1 -i 15 -a 1 -x {0.0 5.0 8 ------- null}
r -t 0.566045333333333 -s 4 -d 3 -p ack -e 40 -c 1 -i 11 -a 1 -x {5.0 0.0 4 ------- null}
+ -t 0.566045333333333 -s 3 -d 0 -p ack -e 40 -c 1 -i 11 -a 1 -x {5.0 0.0 4 ------- null}
- -t 0.566045333333333 -s 3 -d 0 -p ack -e 40 -c 1 -i 11 -a 1 -x {5.0 0.0 4 ------- null}
h -t 0.566045333333333 -s 3 -d 0 -p ack -e 40 -c 1 -i 11 -a 1 -x {5.0 0.0 -1 ------- null}
- -t 0.566362666666667 -s 0 -d 3 -p tcp -e 1040 -c 1 -i 15 -a 1 -x {0.0 5.0 8 ------- null}
h -t 0.566362666666667 -s 0 -d 3 -p tcp -e 1040 -c 1 -i 15 -a 1 -x {0.0 5.0 -1 ------- null}
r -t 0.571077333333333 -s 3 -d 0 -p ack -e 40 -c 1 -i 11 -a 1 -x {5.0 0.0 4 ------- null}
+ -t 0.571077333333333 -s 0 -d 3 -p tcp -e 1040 -c 1 -i 16 -a 1 -x {0.0 5.0 9 ------- null}
- -t 0.571077333333333 -s 0 -d 3 -p tcp -e 1040 -c 1 -i 16 -a 1 -x {0.0 5.0 9 ------- null}
h -t 0.571077333333333 -s 0 -d 3 -p tcp -e 1040 -c 1 -i 16 -a 1 -x {0.0 5.0 -1 ------- null}
+ -t 0.571077333333333 -s 0 -d 3 -p tcp -e 1040 -c 1 -i 17 -a 1 -x {0.0 5.0 10 ------- null}
r -t 0.571362666666667 -s 0 -d 3 -p tcp -e 1040 -c 1 -i 14 -a 1 -x {0.0 5.0 7 ------- null}
+ -t 0.571362666666667 -s 3 -d 4 -p tcp -e 1040 -c 1 -i 14 -a 1 -x {0.0 5.0 7 ------- null}
- -t 0.571362666666667 -s 3 -d 4 -p tcp -e 1040 -c 1 -i 14 -a 1 -x {0.0 5.0 7 ------- null}
h -t 0.571362666666667 -s 3 -d 4 -p tcp -e 1040 -c 1 -i 14 -a 1 -x {0.0 5.0 -1 ------- null}
r -t 0.571592 -s 4 -d 3 -p ack -e 40 -c 1 -i 12 -a 1 -x {5.0 0.0 5 ------- null}
+ -t 0.571592 -s 3 -d 0 -p ack -e 40 -c 1 -i 12 -a 1 -x {5.0 0.0 5 ------- null}
- -t 0.571592 -s 3 -d 0 -p ack -e 40 -c 1 -i 12 -a 1 -x {5.0 0.0 5 ------- null}
h -t 0.571592 -s 3 -d 0 -p ack -e 40 -c 1 -i 12 -a 1 -x {5.0 0.0 -1 ------- null}
- -t 0.571909333333333 -s 0 -d 3 -p tcp -e 1040 -c 1 -i 17 -a 1 -x {0.0 5.0 10 ------- null}
h -t 0.571909333333333 -s 0 -d 3 -p tcp -e 1040 -c 1 -i 17 -a 1 -x {0.0 5.0 -1 ------- null}
r -t 0.572194666666667 -s 0 -d 3 -p tcp -e 1040 -c 1 -i 15 -a 1 -x {0.0 5.0 8 ------- null}
+ -t 0.572194666666667 -s 3 -d 4 -p tcp -e 1040 -c 1 -i 15 -a 1 -x {0.0 5.0 8 ------- null}
r -t 0.576624 -s 3 -d 0 -p ack -e 40 -c 1 -i 12 -a 1 -x {5.0 0.0 5 ------- null}
+ -t 0.576624 -s 0 -d 3 -p tcp -e 1040 -c 1 -i 18 -a 1 -x {0.0 5.0 11 ------- null}
- -t 0.576624 -s 0 -d 3 -p tcp -e 1040 -c 1 -i 18 -a 1 -x {0.0 5.0 11 ------- null}
h -t 0.576624 -s 0 -d 3 -p tcp -e 1040 -c 1 -i 18 -a 1 -x {0.0 5.0 -1 ------- null}
+ -t 0.576624 -s 0 -d 3 -p tcp -e 1040 -c 1 -i 19 -a 1 -x {0.0 5.0 12 ------- null}
r -t 0.576909333333333 -s 0 -d 3 -p tcp -e 1040 -c 1 -i 16 -a 1 -x {0.0 5.0 9 ------- null}
+ -t 0.576909333333333 -s 3 -d 4 -p tcp -e 1040 -c 1 -i 16 -a 1 -x {0.0 5.0 9 ------- null}
- -t 0.576909333333333 -s 3 -d 4 -p tcp -e 1040 -c 1 -i 15 -a 1 -x {0.0 5.0 8 ------- null}
h -t 0.576909333333333 -s 3 -d 4 -p tcp -e 1040 -c 1 -i 15 -a 1 -x {0.0 5.0 -1 ------- null}
r -t 0.577138666666667 -s 4 -d 3 -p ack -e 40 -c 1 -i 13 -a 1 -x {5.0 0.0 6 ------- null}
+ -t 0.577138666666667 -s 3 -d 0 -p ack -e 40 -c 1 -i 13 -a 1 -x {5.0 0.0 6 ------- null}
- -t 0.577138666666667 -s 3 -d 0 -p ack -e 40 -c 1 -i 13 -a 1 -x {5.0 0.0 6 ------- null}
h -t 0.577138666666667 -s 3 -d 0 -p ack -e 40 -c 1 -i 13 -a 1 -x {5.0 0.0 -1 ------- null}
- -t 0.577456 -s 0 -d 3 -p tcp -e 1040 -c 1 -i 19 -a 1 -x {0.0 5.0 12 ------- null}
h -t 0.577456 -s 0 -d 3 -p tcp -e 1040 -c 1 -i 19 -a 1 -x {0.0 5.0 -1 ------- null}
r -t 0.577741333333333 -s 0 -d 3 -p tcp -e 1040 -c 1 -i 17 -a 1 -x {0.0 5.0 10 ------- null}
+ -t 0.577741333333333 -s 3 -d 4 -p tcp -e 1040 -c 1 -i 17 -a 1 -x {0.0 5.0 10 ------- null}
r -t 0.582170666666667 -s 3 -d 0 -p ack -e 40 -c 1 -i 13 -a 1 -x {5.0 0.0 6 ------- null}
+ -t 0.582170666666667 -s 0 -d 3 -p tcp -e 1040 -c 1 -i 20 -a 1 -x {0.0 5.0 13 ------- null}
- -t 0.582170666666667 -s 0 -d 3 -p tcp -e 1040 -c 1 -i 20 -a 1 -x {0.0 5.0 13 ------- null}
h -t 0.582170666666667 -s 0 -d 3 -p tcp -e 1040 -c 1 -i 20 -a 1 -x {0.0 5.0 -1 ------- null}
+ -t 0.582170666666667 -s 0 -d 3 -p tcp -e 1040 -c 1 -i 21 -a 1 -x {0.0 5.0 14 ------- null}
r -t 0.582456 -s 0 -d 3 -p tcp -e 1040 -c 1 -i 18 -a 1 -x {0.0 5.0 11 ------- null}
+ -t 0.582456 -s 3 -d 4 -p tcp -e 1040 -c 1 -i 18 -a 1 -x {0.0 5.0 11 ------- null}
- -t 0.582456 -s 3 -d 4 -p tcp -e 1040 -c 1 -i 16 -a 1 -x {0.0 5.0 9 ------- null}
h -t 0.582456 -s 3 -d 4 -p tcp -e 1040 -c 1 -i 16 -a 1 -x {0.0 5.0 -1 ------- null}
- -t 0.583002666666667 -s 0 -d 3 -p tcp -e 1040 -c 1 -i 21 -a 1 -x {0.0 5.0 14 ------- null}
h -t 0.583002666666667 -s 0 -d 3 -p tcp -e 1040 -c 1 -i 21 -a 1 -x {0.0 5.0 -1 ------- null}
r -t 0.583288 -s 0 -d 3 -p tcp -e 1040 -c 1 -i 19 -a 1 -x {0.0 5.0 12 ------- null}
+ -t 0.583288 -s 3 -d 4 -p tcp -e 1040 -c 1 -i 19 -a 1 -x {0.0 5.0 12 ------- null}
r -t 0.588002666666667 -s 0 -d 3 -p tcp -e 1040 -c 1 -i 20 -a 1 -x {0.0 5.0 13 ------- null}
+ -t 0.588002666666667 -s 3 -d 4 -p tcp -e 1040 -c 1 -i 20 -a 1 -x {0.0 5.0 13 ------- null}
- -t 0.588002666666667 -s 3 -d 4 -p tcp -e 1040 -c 1 -i 17 -a 1 -x {0.0 5.0 10 ------- null}
h -t 0.588002666666667 -s 3 -d 4 -p tcp -e 1040 -c 1 -i 17 -a 1 -x {0.0 5.0 -1 ------- null}
r -t 0.588834666666667 -s 0 -d 3 -p tcp -e 1040 -c 1 -i 21 -a 1 -x {0.0 5.0 14 ------- null}
+ -t 0.588834666666667 -s 3 -d 4 -p tcp -e 1040 -c 1 -i 21 -a 1 -x {0.0 5.0 14 ------- null}
r -t 0.591909333333333 -s 3 -d 4 -p tcp -e 1040 -c 1 -i 14 -a 1 -x {0.0 5.0 7 ------- null}
+ -t 0.591909333333333 -s 4 -d 5 -p tcp -e 1040 -c 1 -i 14 -a 1 -x {0.0 5.0 7 ------- null}
- -t 0.591909333333333 -s 4 -d 5 -p tcp -e 1040 -c 1 -i 14 -a 1 -x {0.0 5.0 7 ------- null}
h -t 0.591909333333333 -s 4 -d 5 -p tcp -e 1040 -c 1 -i 14 -a 1 -x {0.0 5.0 -1 ------- null}
- -t 0.593549333333333 -s 3 -d 4 -p tcp -e 1040 -c 1 -i 18 -a 1 -x {0.0 5.0 11 ------- null}
h -t 0.593549333333333 -s 3 -d 4 -p tcp -e 1040 -c 1 -i 18 -a 1 -x {0.0 5.0 -1 ------- null}
r -t 0.597456 -s 3 -d 4 -p tcp -e 1040 -c 1 -i 15 -a 1 -x {0.0 5.0 8 ------- null}
+ -t 0.597456 -s 4 -d 5 -p tcp -e 1040 -c 1 -i 15 -a 1 -x {0.0 5.0 8 ------- null}
- -t 0.597456 -s 4 -d 5 -p tcp -e 1040 -c 1 -i 15 -a 1 -x {0.0 5.0 8 ------- null}
h -t 0.597456 -s 4 -d 5 -p tcp -e 1040 -c 1 -i 15 -a 1 -x {0.0 5.0 -1 ------- null}
r -t 0.597741333333333 -s 4 -d 5 -p tcp -e 1040 -c 1 -i 14 -a 1 -x {0.0 5.0 7 ------- null}
+ -t 0.597741333333333 -s 5 -d 4 -p ack -e 40 -c 1 -i 22 -a 1 -x {5.0 0.0 7 ------- null}
- -t 0.597741333333333 -s 5 -d 4 -p ack -e 40 -c 1 -i 22 -a 1 -x {5.0 0.0 7 ------- null}
h -t 0.597741333333333 -s 5 -d 4 -p ack -e 40 -c 1 -i 22 -a 1 -x {5.0 0.0 -1 ------- null}
- -t 0.599096 -s 3 -d 4 -p tcp -e 1040 -c 1 -i 19 -a 1 -x {0.0 5.0 12 ------- null}
h -t 0.599096 -s 3 -d 4 -p tcp -e 1040 -c 1 -i 19 -a 1 -x {0.0 5.0 -1 ------- null}
+ -t 0.6 -s 1 -d 3 -p tcp -e 40 -c 3 -i 23 -a 3 -x {1.1 6.1 0 ------- null}
- -t 0.6 -s 1 -d 3 -p tcp -e 40 -c 3 -i 23 -a 3 -x {1.1 6.1 0 ------- null}
h -t 0.6 -s 1 -d 3 -p tcp -e 40 -c 3 -i 23 -a 3 -x {1.1 6.1 -1 ------- null}
r -t 0.602773333333333 -s 5 -d 4 -p ack -e 40 -c 1 -i 22 -a 1 -x {5.0 0.0 7 ------- null}
+ -t 0.602773333333333 -s 4 -d 3 -p ack -e 40 -c 1 -i 22 -a 1 -x {5.0 0.0 7 ------- null}
- -t 0.602773333333333 -s 4 -d 3 -p ack -e 40 -c 1 -i 22 -a 1 -x {5.0 0.0 7 ------- null}
h -t 0.602773333333333 -s 4 -d 3 -p ack -e 40 -c 1 -i 22 -a 1 -x {5.0 0.0 -1 ------- null}
r -t 0.603002666666667 -s 3 -d 4 -p tcp -e 1040 -c 1 -i 16 -a 1 -x {0.0 5.0 9 ------- null}
+ -t 0.603002666666667 -s 4 -d 5 -p tcp -e 1040 -c 1 -i 16 -a 1 -x {0.0 5.0 9 ------- null}
- -t 0.603002666666667 -s 4 -d 5 -p tcp -e 1040 -c 1 -i 16 -a 1 -x {0.0 5.0 9 ------- null}
h -t 0.603002666666667 -s 4 -d 5 -p tcp -e 1040 -c 1 -i 16 -a 1 -x {0.0 5.0 -1 ------- null}
r -t 0.603288 -s 4 -d 5 -p tcp -e 1040 -c 1 -i 15 -a 1 -x {0.0 5.0 8 ------- null}
+ -t 0.603288 -s 5 -d 4 -p ack -e 40 -c 1 -i 24 -a 1 -x {5.0 0.0 8 ------- null}
- -t 0.603288 -s 5 -d 4 -p ack -e 40 -c 1 -i 24 -a 1 -x {5.0 0.0 8 ------- null}
h -t 0.603288 -s 5 -d 4 -p ack -e 40 -c 1 -i 24 -a 1 -x {5.0 0.0 -1 ------- null}
- -t 0.604642666666667 -s 3 -d 4 -p tcp -e 1040 -c 1 -i 20 -a 1 -x {0.0 5.0 13 ------- null}
h -t 0.604642666666667 -s 3 -d 4 -p tcp -e 1040 -c 1 -i 20 -a 1 -x {0.0 5.0 -1 ------- null}
r -t 0.605032 -s 1 -d 3 -p tcp -e 40 -c 3 -i 23 -a 3 -x {1.1 6.1 0 ------- null}
+ -t 0.605032 -s 3 -d 4 -p tcp -e 40 -c 3 -i 23 -a 3 -x {1.1 6.1 0 ------- null}
r -t 0.60832 -s 5 -d 4 -p ack -e 40 -c 1 -i 24 -a 1 -x {5.0 0.0 8 ------- null}
+ -t 0.60832 -s 4 -d 3 -p ack -e 40 -c 1 -i 24 -a 1 -x {5.0 0.0 8 ------- null}
- -t 0.60832 -s 4 -d 3 -p ack -e 40 -c 1 -i 24 -a 1 -x {5.0 0.0 8 ------- null}
h -t 0.60832 -s 4 -d 3 -p ack -e 40 -c 1 -i 24 -a 1 -x {5.0 0.0 -1 ------- null}
r -t 0.608549333333333 -s 3 -d 4 -p tcp -e 1040 -c 1 -i 17 -a 1 -x {0.0 5.0 10 ------- null}
+ -t 0.608549333333333 -s 4 -d 5 -p tcp -e 1040 -c 1 -i 17 -a 1 -x {0.0 5.0 10 ------- null}
- -t 0.608549333333333 -s 4 -d 5 -p tcp -e 1040 -c 1 -i 17 -a 1 -x {0.0 5.0 10 ------- null}
h -t 0.608549333333333 -s 4 -d 5 -p tcp -e 1040 -c 1 -i 17 -a 1 -x {0.0 5.0 -1 ------- null}
r -t 0.608834666666667 -s 4 -d 5 -p tcp -e 1040 -c 1 -i 16 -a 1 -x {0.0 5.0 9 ------- null}
+ -t 0.608834666666667 -s 5 -d 4 -p ack -e 40 -c 1 -i 25 -a 1 -x {5.0 0.0 9 ------- null}
- -t 0.608834666666667 -s 5 -d 4 -p ack -e 40 -c 1 -i 25 -a 1 -x {5.0 0.0 9 ------- null}
h -t 0.608834666666667 -s 5 -d 4 -p ack -e 40 -c 1 -i 25 -a 1 -x {5.0 0.0 -1 ------- null}
- -t 0.610189333333333 -s 3 -d 4 -p tcp -e 1040 -c 1 -i 21 -a 1 -x {0.0 5.0 14 ------- null}
h -t 0.610189333333333 -s 3 -d 4 -p tcp -e 1040 -c 1 -i 21 -a 1 -x {0.0 5.0 -1 ------- null}
r -t 0.613866666666667 -s 5 -d 4 -p ack -e 40 -c 1 -i 25 -a 1 -x {5.0 0.0 9 ------- null}
+ -t 0.613866666666667 -s 4 -d 3 -p ack -e 40 -c 1 -i 25 -a 1 -x {5.0 0.0 9 ------- null}
- -t 0.613866666666667 -s 4 -d 3 -p ack -e 40 -c 1 -i 25 -a 1 -x {5.0 0.0 9 ------- null}
h -t 0.613866666666667 -s 4 -d 3 -p ack -e 40 -c 1 -i 25 -a 1 -x {5.0 0.0 -1 ------- null}
r -t 0.614096 -s 3 -d 4 -p tcp -e 1040 -c 1 -i 18 -a 1 -x {0.0 5.0 11 ------- null}
+ -t 0.614096 -s 4 -d 5 -p tcp -e 1040 -c 1 -i 18 -a 1 -x {0.0 5.0 11 ------- null}
- -t 0.614096 -s 4 -d 5 -p tcp -e 1040 -c 1 -i 18 -a 1 -x {0.0 5.0 11 ------- null}
h -t 0.614096 -s 4 -d 5 -p tcp -e 1040 -c 1 -i 18 -a 1 -x {0.0 5.0 -1 ------- null}
r -t 0.614381333333333 -s 4 -d 5 -p tcp -e 1040 -c 1 -i 17 -a 1 -x {0.0 5.0 10 ------- null}
+ -t 0.614381333333333 -s 5 -d 4 -p ack -e 40 -c 1 -i 26 -a 1 -x {5.0 0.0 10 ------- null}
- -t 0.614381333333333 -s 5 -d 4 -p ack -e 40 -c 1 -i 26 -a 1 -x {5.0 0.0 10 ------- null}
h -t 0.614381333333333 -s 5 -d 4 -p ack -e 40 -c 1 -i 26 -a 1 -x {5.0 0.0 -1 ------- null}
- -t 0.615736 -s 3 -d 4 -p tcp -e 40 -c 3 -i 23 -a 3 -x {1.1 6.1 0 ------- null}
h -t 0.615736 -s 3 -d 4 -p tcp -e 40 -c 3 -i 23 -a 3 -x {1.1 6.1 -1 ------- null}
r -t 0.617986666666667 -s 4 -d 3 -p ack -e 40 -c 1 -i 22 -a 1 -x {5.0 0.0 7 ------- null}
+ -t 0.617986666666667 -s 3 -d 0 -p ack -e 40 -c 1 -i 22 -a 1 -x {5.0 0.0 7 ------- null}
- -t 0.617986666666667 -s 3 -d 0 -p ack -e 40 -c 1 -i 22 -a 1 -x {5.0 0.0 7 ------- null}
h -t 0.617986666666667 -s 3 -d 0 -p ack -e 40 -c 1 -i 22 -a 1 -x {5.0 0.0 -1 ------- null}
r -t 0.619413333333333 -s 5 -d 4 -p ack -e 40 -c 1 -i 26 -a 1 -x {5.0 0.0 10 ------- null}
+ -t 0.619413333333333 -s 4 -d 3 -p ack -e 40 -c 1 -i 26 -a 1 -x {5.0 0.0 10 ------- null}
- -t 0.619413333333333 -s 4 -d 3 -p ack -e 40 -c 1 -i 26 -a 1 -x {5.0 0.0 10 ------- null}
h -t 0.619413333333333 -s 4 -d 3 -p ack -e 40 -c 1 -i 26 -a 1 -x {5.0 0.0 -1 ------- null}
r -t 0.619642666666667 -s 3 -d 4 -p tcp -e 1040 -c 1 -i 19 -a 1 -x {0.0 5.0 12 ------- null}
+ -t 0.619642666666667 -s 4 -d 5 -p tcp -e 1040 -c 1 -i 19 -a 1 -x {0.0 5.0 12 ------- null}
- -t 0.619642666666667 -s 4 -d 5 -p tcp -e 1040 -c 1 -i 19 -a 1 -x {0.0 5.0 12 ------- null}
h -t 0.619642666666667 -s 4 -d 5 -p tcp -e 1040 -c 1 -i 19 -a 1 -x {0.0 5.0 -1 ------- null}
r -t 0.619928 -s 4 -d 5 -p tcp -e 1040 -c 1 -i 18 -a 1 -x {0.0 5.0 11 ------- null}
+ -t 0.619928 -s 5 -d 4 -p ack -e 40 -c 1 -i 27 -a 1 -x {5.0 0.0 11 ------- null}
- -t 0.619928 -s 5 -d 4 -p ack -e 40 -c 1 -i 27 -a 1 -x {5.0 0.0 11 ------- null}
h -t 0.619928 -s 5 -d 4 -p ack -e 40 -c 1 -i 27 -a 1 -x {5.0 0.0 -1 ------- null}
r -t 0.623018666666667 -s 3 -d 0 -p ack -e 40 -c 1 -i 22 -a 1 -x {5.0 0.0 7 ------- null}
+ -t 0.623018666666667 -s 0 -d 3 -p tcp -e 1040 -c 1 -i 28 -a 1 -x {0.0 5.0 15 ------- null}
- -t 0.623018666666667 -s 0 -d 3 -p tcp -e 1040 -c 1 -i 28 -a 1 -x {0.0 5.0 15 ------- null}
h -t 0.623018666666667 -s 0 -d 3 -p tcp -e 1040 -c 1 -i 28 -a 1 -x {0.0 5.0 -1 ------- null}
+ -t 0.623018666666667 -s 0 -d 3 -p tcp -e 1040 -c 1 -i 29 -a 1 -x {0.0 5.0 16 ------- null}
r -t 0.623533333333333 -s 4 -d 3 -p ack -e 40 -c 1 -i 24 -a 1 -x {5.0 0.0 8 ------- null}
+ -t 0.623533333333333 -s 3 -d 0 -p ack -e 40 -c 1 -i 24 -a 1 -x {5.0 0.0 8 ------- null}
- -t 0.623533333333333 -s 3 -d 0 -p ack -e 40 -c 1 -i 24 -a 1 -x {5.0 0.0 8 ------- null}
h -t 0.623533333333333 -s 3 -d 0 -p ack -e 40 -c 1 -i 24 -a 1 -x {5.0 0.0 -1 ------- null}
- -t 0.623850666666667 -s 0 -d 3 -p tcp -e 1040 -c 1 -i 29 -a 1 -x {0.0 5.0 16 ------- null}
h -t 0.623850666666667 -s 0 -d 3 -p tcp -e 1040 -c 1 -i 29 -a 1 -x {0.0 5.0 -1 ------- null}
r -t 0.62496 -s 5 -d 4 -p ack -e 40 -c 1 -i 27 -a 1 -x {5.0 0.0 11 ------- null}
+ -t 0.62496 -s 4 -d 3 -p ack -e 40 -c 1 -i 27 -a 1 -x {5.0 0.0 11 ------- null}
- -t 0.62496 -s 4 -d 3 -p ack -e 40 -c 1 -i 27 -a 1 -x {5.0 0.0 11 ------- null}
h -t 0.62496 -s 4 -d 3 -p ack -e 40 -c 1 -i 27 -a 1 -x {5.0 0.0 -1 ------- null}
r -t 0.625189333333333 -s 3 -d 4 -p tcp -e 1040 -c 1 -i 20 -a 1 -x {0.0 5.0 13 ------- null}
+ -t 0.625189333333333 -s 4 -d 5 -p tcp -e 1040 -c 1 -i 20 -a 1 -x {0.0 5.0 13 ------- null}
- -t 0.625189333333333 -s 4 -d 5 -p tcp -e 1040 -c 1 -i 20 -a 1 -x {0.0 5.0 13 ------- null}
h -t 0.625189333333333 -s 4 -d 5 -p tcp -e 1040 -c 1 -i 20 -a 1 -x {0.0 5.0 -1 ------- null}
r -t 0.625474666666667 -s 4 -d 5 -p tcp -e 1040 -c 1 -i 19 -a 1 -x {0.0 5.0 12 ------- null}
+ -t 0.625474666666667 -s 5 -d 4 -p ack -e 40 -c 1 -i 30 -a 1 -x {5.0 0.0 12 ------- null}
- -t 0.625474666666667 -s 5 -d 4 -p ack -e 40 -c 1 -i 30 -a 1 -x {5.0 0.0 12 ------- null}
h -t 0.625474666666667 -s 5 -d 4 -p ack -e 40 -c 1 -i 30 -a 1 -x {5.0 0.0 -1 ------- null}
r -t 0.628565333333333 -s 3 -d 0 -p ack -e 40 -c 1 -i 24 -a 1 -x {5.0 0.0 8 ------- null}
+ -t 0.628565333333333 -s 0 -d 3 -p tcp -e 1040 -c 1 -i 31 -a 1 -x {0.0 5.0 17 ------- null}
- -t 0.628565333333333 -s 0 -d 3 -p tcp -e 1040 -c 1 -i 31 -a 1 -x {0.0 5.0 17 ------- null}
h -t 0.628565333333333 -s 0 -d 3 -p tcp -e 1040 -c 1 -i 31 -a 1 -x {0.0 5.0 -1 ------- null}
+ -t 0.628565333333333 -s 0 -d 3 -p tcp -e 1040 -c 1 -i 32 -a 1 -x {0.0 5.0 18 ------- null}
r -t 0.628850666666667 -s 0 -d 3 -p tcp -e 1040 -c 1 -i 28 -a 1 -x {0.0 5.0 15 ------- null}
+ -t 0.628850666666667 -s 3 -d 4 -p tcp -e 1040 -c 1 -i 28 -a 1 -x {0.0 5.0 15 ------- null}