+ 0.4 0 3 tcp 40 ------- 0 0.0 5.0 0 0
- 0.4 0 3 tcp 40 ------- 0 0.0 5.0 0 0
r 0.405032 0 3 tcp 40 ------- 0 0.0 5.0 0 0
+ 0.405032 3 4 tcp 40 ------- 0 0.0 5.0 0 0
- 0.405032 3 4 tcp 40 ------- 0 0.0 5.0 0 0
r 0.420245 3 4 tcp 40 ------- 0 0.0 5.0 0 0
+ 0.420245 4 5 tcp 40 ------- 0 0.0 5.0 0 0
- 0.420245 4 5 tcp 40 ------- 0 0.0 5.0 0 0
r 0.425277 4 5 tcp 40 ------- 0 0.0 5.0 0 0
+ 0.425277 5 4 ack 40 ------- 0 5.0 0.0 0 1
- 0.425277 5 4 ack 40 ------- 0 5.0 0.0 0 1
r 0.430309 5 4 ack 40 ------- 0 5.0 0.0 0 1
+ 0.430309 4 3 ack 40 ------- 0 5.0 0.0 0 1
- 0.430309 4 3 ack 40 ------- 0 5.0 0.0 0 1
r 0.445523 4 3 ack 40 ------- 0 5.0 0.0 0 1
+ 0.445523 3 0 ack 40 ------- 0 5.0 0.0 0 1
- 0.445523 3 0 ack 40 ------- 0 5.0 0.0 0 1
r 0.450555 3 0 ack 40 ------- 0 5.0 0.0 0 1
+ 0.450555 0 3 tcp 1040 ------- 0 0.0 5.0 1 2
- 0.450555 0 3 tcp 1040 ------- 0 0.0 5.0 1 2
+ 0.450555 0 3 tcp 1040 ------- 0 0.0 5.0 2 3
- 0.451387 0 3 tcp 1040 ------- 0 0.0 5.0 2 3
r 0.456387 0 3 tcp 1040 ------- 0 0.0 5.0 1 2
+ 0.456387 3 4 tcp 1040 ------- 0 0.0 5.0 1 2
- 0.456387 3 4 tcp 1040 ------- 0 0.0 5.0 1 2
r 0.457219 0 3 tcp 1040 ------- 0 0.0 5.0 2 3
+ 0.457219 3 4 tcp 1040 ------- 0 0.0 5.0 2 3
- 0.461933 3 4 tcp 1040 ------- 0 0.0 5.0 2 3
r 0.476933 3 4 tcp 1040 ------- 0 0.0 5.0 1 2
+ 0.476933 4 5 tcp 1040 ------- 0 0.0 5.0 1 2
- 0.476933 4 5 tcp 1040 ------- 0 0.0 5.0 1 2
r 0.48248 3 4 tcp 1040 ------- 0 0.0 5.0 2 3
+ 0.48248 4 5 tcp 1040 ------- 0 0.0 5.0 2 3
- 0.48248 4 5 tcp 1040 ------- 0 0.0 5.0 2 3
r 0.482765 4 5 tcp 1040 ------- 0 0.0 5.0 1 2
+ 0.482765 5 4 ack 40 ------- 0 5.0 0.0 1 4
- 0.482765 5 4 ack 40 ------- 0 5.0 0.0 1 4
r 0.487797 5 4 ack 40 ------- 0 5.0 0.0 1 4
+ 0.487797 4 3 ack 40 ------- 0 5.0 0.0 1 4
- 0.487797 4 3 ack 40 ------- 0 5.0 0.0 1 4
r 0.488312 4 5 tcp 1040 ------- 0 0.0 5.0 2 3
+ 0.488312 5 4 ack 40 ------- 0 5.0 0.0 2 5
- 0.488312 5 4 ack 40 ------- 0 5.0 0.0 2 5
r 0.493344 5 4 ack 40 ------- 0 5.0 0.0 2 5
+ 0.493344 4 3 ack 40 ------- 0 5.0 0.0 2 5
- 0.493344 4 3 ack 40 ------- 0 5.0 0.0 2 5
r 0.503011 4 3 ack 40 ------- 0 5.0 0.0 1 4
+ 0.503011 3 0 ack 40 ------- 0 5.0 0.0 1 4
- 0.503011 3 0 ack 40 ------- 0 5.0 0.0 1 4
r 0.508043 3 0 ack 40 ------- 0 5.0 0.0 1 4
+ 0.508043 0 3 tcp 1040 ------- 0 0.0 5.0 3 6
- 0.508043 0 3 tcp 1040 ------- 0 0.0 5.0 3 6
+ 0.508043 0 3 tcp 1040 ------- 0 0.0 5.0 4 7
r 0.508557 4 3 ack 40 ------- 0 5.0 0.0 2 5
+ 0.508557 3 0 ack 40 ------- 0 5.0 0.0 2 5
- 0.508557 3 0 ack 40 ------- 0 5.0 0.0 2 5
- 0.508875 0 3 tcp 1040 ------- 0 0.0 5.0 4 7
r 0.513589 3 0 ack 40 ------- 0 5.0 0.0 2 5
+ 0.513589 0 3 tcp 1040 ------- 0 0.0 5.0 5 8
- 0.513589 0 3 tcp 1040 ------- 0 0.0 5.0 5 8
+ 0.513589 0 3 tcp 1040 ------- 0 0.0 5.0 6 9
r 0.513875 0 3 tcp 1040 ------- 0 0.0 5.0 3 6
+ 0.513875 3 4 tcp 1040 ------- 0 0.0 5.0 3 6
- 0.513875 3 4 tcp 1040 ------- 0 0.0 5.0 3 6
- 0.514421 0 3 tcp 1040 ------- 0 0.0 5.0 6 9
r 0.514707 0 3 tcp 1040 ------- 0 0.0 5.0 4 7
+ 0.514707 3 4 tcp 1040 ------- 0 0.0 5.0 4 7
r 0.519421 0 3 tcp 1040 ------- 0 0.0 5.0 5 8
+ 0.519421 3 4 tcp 1040 ------- 0 0.0 5.0 5 8
- 0.519421 3 4 tcp 1040 ------- 0 0.0 5.0 4 7
r 0.520253 0 3 tcp 1040 ------- 0 0.0 5.0 6 9
+ 0.520253 3 4 tcp 1040 ------- 0 0.0 5.0 6 9
- 0.524968 3 4 tcp 1040 ------- 0 0.0 5.0 5 8
- 0.530515 3 4 tcp 1040 ------- 0 0.0 5.0 6 9
r 0.534421 3 4 tcp 1040 ------- 0 0.0 5.0 3 6
+ 0.534421 4 5 tcp 1040 ------- 0 0.0 5.0 3 6
- 0.534421 4 5 tcp 1040 ------- 0 0.0 5.0 3 6
r 0.539968 3 4 tcp 1040 ------- 0 0.0 5.0 4 7
+ 0.539968 4 5 tcp 1040 ------- 0 0.0 5.0 4 7
- 0.539968 4 5 tcp 1040 ------- 0 0.0 5.0 4 7
r 0.540253 4 5 tcp 1040 ------- 0 0.0 5.0 3 6
+ 0.540253 5 4 ack 40 ------- 0 5.0 0.0 3 10
- 0.540253 5 4 ack 40 ------- 0 5.0 0.0 3 10
r 0.545285 5 4 ack 40 ------- 0 5.0 0.0 3 10
+ 0.545285 4 3 ack 40 ------- 0 5.0 0.0 3 10
- 0.545285 4 3 ack 40 ------- 0 5.0 0.0 3 10
r 0.545515 3 4 tcp 1040 ------- 0 0.0 5.0 5 8
+ 0.545515 4 5 tcp 1040 ------- 0 0.0 5.0 5 8
- 0.545515 4 5 tcp 1040 ------- 0 0.0 5.0 5 8
r 0.5458 4 5 tcp 1040 ------- 0 0.0 5.0 4 7
+ 0.5458 5 4 ack 40 ------- 0 5.0 0.0 4 11
- 0.5458 5 4 ack 40 ------- 0 5.0 0.0 4 11
r 0.550832 5 4 ack 40 ------- 0 5.0 0.0 4 11
+ 0.550832 4 3 ack 40 ------- 0 5.0 0.0 4 11
- 0.550832 4 3 ack 40 ------- 0 5.0 0.0 4 11
r 0.551061 3 4 tcp 1040 ------- 0 0.0 5.0 6 9
+ 0.551061 4 5 tcp 1040 ------- 0 0.0 5.0 6 9
- 0.551061 4 5 tcp 1040 ------- 0 0.0 5.0 6 9
r 0.551347 4 5 tcp 1040 ------- 0 0.0 5.0 5 8
+ 0.551347 5 4 ack 40 ------- 0 5.0 0.0 5 12
- 0.551347 5 4 ack 40 ------- 0 5.0 0.0 5 12
r 0.556379 5 4 ack 40 ------- 0 5.0 0.0 5 12
+ 0.556379 4 3 ack 40 ------- 0 5.0 0.0 5 12
- 0.556379 4 3 ack 40 ------- 0 5.0 0.0 5 12
r 0.556893 4 5 tcp 1040 ------- 0 0.0 5.0 6 9
+ 0.556893 5 4 ack 40 ------- 0 5.0 0.0 6 13
- 0.556893 5 4 ack 40 ------- 0 5.0 0.0 6 13
r 0.560499 4 3 ack 40 ------- 0 5.0 0.0 3 10
+ 0.560499 3 0 ack 40 ------- 0 5.0 0.0 3 10
- 0.560499 3 0 ack 40 ------- 0 5.0 0.0 3 10
r 0.561925 5 4 ack 40 ------- 0 5.0 0.0 6 13
+ 0.561925 4 3 ack 40 ------- 0 5.0 0.0 6 13
- 0.561925 4 3 ack 40 ------- 0 5.0 0.0 6 13
r 0.565531 3 0 ack 40 ------- 0 5.0 0.0 3 10
+ 0.565531 0 3 tcp 1040 ------- 0 0.0 5.0 7 14
- 0.565531 0 3 tcp 1040 ------- 0 0.0 5.0 7 14
+ 0.565531 0 3 tcp 1040 ------- 0 0.0 5.0 8 15
r 0.566045 4 3 ack 40 ------- 0 5.0 0.0 4 11
+ 0.566045 3 0 ack 40 ------- 0 5.0 0.0 4 11
- 0.566045 3 0 ack 40 ------- 0 5.0 0.0 4 11
- 0.566363 0 3 tcp 1040 ------- 0 0.0 5.0 8 15
r 0.571077 3 0 ack 40 ------- 0 5.0 0.0 4 11
+ 0.571077 0 3 tcp 1040 ------- 0 0.0 5.0 9 16
- 0.571077 0 3 tcp 1040 ------- 0 0.0 5.0 9 16
+ 0.571077 0 3 tcp 1040 ------- 0 0.0 5.0 10 17
r 0.571363 0 3 tcp 1040 ------- 0 0.0 5.0 7 14
+ 0.571363 3 4 tcp 1040 ------- 0 0.0 5.0 7 14
- 0.571363 3 4 tcp 1040 ------- 0 0.0 5.0 7 14
r 0.571592 4 3 ack 40 ------- 0 5.0 0.0 5 12
+ 0.571592 3 0 ack 40 ------- 0 5.0 0.0 5 12
- 0.571592 3 0 ack 40 ------- 0 5.0 0.0 5 12
- 0.571909 0 3 tcp 1040 ------- 0 0.0 5.0 10 17
r 0.572195 0 3 tcp 1040 ------- 0 0.0 5.0 8 15
+ 0.572195 3 4 tcp 1040 ------- 0 0.0 5.0 8 15
r 0.576624 3 0 ack 40 ------- 0 5.0 0.0 5 12
+ 0.576624 0 3 tcp 1040 ------- 0 0.0 5.0 11 18
- 0.576624 0 3 tcp 1040 ------- 0 0.0 5.0 11 18
+ 0.576624 0 3 tcp 1040 ------- 0 0.0 5.0 12 19
r 0.576909 0 3 tcp 1040 ------- 0 0.0 5.0 9 16
+ 0.576909 3 4 tcp 1040 ------- 0 0.0 5.0 9 16
- 0.576909 3 4 tcp 1040 ------- 0 0.0 5.0 8 15
r 0.577139 4 3 ack 40 ------- 0 5.0 0.0 6 13
+ 0.577139 3 0 ack 40 ------- 0 5.0 0.0 6 13
- 0.577139 3 0 ack 40 ------- 0 5.0 0.0 6 13
- 0.577456 0 3 tcp 1040 ------- 0 0.0 5.0 12 19
r 0.577741 0 3 tcp 1040 ------- 0 0.0 5.0 10 17
+ 0.577741 3 4 tcp 1040 ------- 0 0.0 5.0 10 17
r 0.582171 3 0 ack 40 ------- 0 5.0 0.0 6 13
+ 0.582171 0 3 tcp 1040 ------- 0 0.0 5.0 13 20
- 0.582171 0 3 tcp 1040 ------- 0 0.0 5.0 13 20
+ 0.582171 0 3 tcp 1040 ------- 0 0.0 5.0 14 21
r 0.582456 0 3 tcp 1040 ------- 0 0.0 5.0 11 18
+ 0.582456 3 4 tcp 1040 ------- 0 0.0 5.0 11 18
- 0.582456 3 4 tcp 1040 ------- 0 0.0 5.0 9 16
- 0.583003 0 3 tcp 1040 ------- 0 0.0 5.0 14 21
r 0.583288 0 3 tcp 1040 ------- 0 0.0 5.0 12 19
+ 0.583288 3 4 tcp 1040 ------- 0 0.0 5.0 12 19
r 0.588003 0 3 tcp 1040 ------- 0 0.0 5.0 13 20
+ 0.588003 3 4 tcp 1040 ------- 0 0.0 5.0 13 20
- 0.588003 3 4 tcp 1040 ------- 0 0.0 5.0 10 17
r 0.588835 0 3 tcp 1040 ------- 0 0.0 5.0 14 21
+ 0.588835 3 4 tcp 1040 ------- 0 0.0 5.0 14 21
r 0.591909 3 4 tcp 1040 ------- 0 0.0 5.0 7 14
+ 0.591909 4 5 tcp 1040 ------- 0 0.0 5.0 7 14
- 0.591909 4 5 tcp 1040 ------- 0 0.0 5.0 7 14
- 0.593549 3 4 tcp 1040 ------- 0 0.0 5.0 11 18
r 0.597456 3 4 tcp 1040 ------- 0 0.0 5.0 8 15
+ 0.597456 4 5 tcp 1040 ------- 0 0.0 5.0 8 15
- 0.597456 4 5 tcp 1040 ------- 0 0.0 5.0 8 15
r 0.597741 4 5 tcp 1040 ------- 0 0.0 5.0 7 14
+ 0.597741 5 4 ack 40 ------- 0 5.0 0.0 7 22
- 0.597741 5 4 ack 40 ------- 0 5.0 0.0 7 22
- 0.599096 3 4 tcp 1040 ------- 0 0.0 5.0 12 19
+ 0.6 1 3 tcp 40 ------- 1 1.0 6.0 0 23
- 0.6 1 3 tcp 40 ------- 1 1.0 6.0 0 23
r 0.602773 5 4 ack 40 ------- 0 5.0 0.0 7 22
+ 0.602773 4 3 ack 40 ------- 0 5.0 0.0 7 22
- 0.602773 4 3 ack 40 ------- 0 5.0 0.0 7 22
r 0.603003 3 4 tcp 1040 ------- 0 0.0 5.0 9 16
+ 0.603003 4 5 tcp 1040 ------- 0 0.0 5.0 9 16
- 0.603003 4 5 tcp 1040 ------- 0 0.0 5.0 9 16
r 0.603288 4 5 tcp 1040 ------- 0 0.0 5.0 8 15
+ 0.603288 5 4 ack 40 ------- 0 5.0 0.0 8 24
- 0.603288 5 4 ack 40 ------- 0 5.0 0.0 8 24
- 0.604643 3 4 tcp 1040 ------- 0 0.0 5.0 13 20
r 0.605032 1 3 tcp 40 ------- 1 1.0 6.0 0 23
+ 0.605032 3 4 tcp 40 ------- 1 1.0 6.0 0 23
r 0.60832 5 4 ack 40 ------- 0 5.0 0.0 8 24
+ 0.60832 4 3 ack 40 ------- 0 5.0 0.0 8 24
- 0.60832 4 3 ack 40 ------- 0 5.0 0.0 8 24
r 0.608549 3 4 tcp 1040 ------- 0 0.0 5.0 10 17
+ 0.608549 4 5 tcp 1040 ------- 0 0.0 5.0 10 17
- 0.608549 4 5 tcp 1040 ------- 0 0.0 5.0 10 17
r 0.608835 4 5 tcp 1040 ------- 0 0.0 5.0 9 16
+ 0.608835 5 4 ack 40 ------- 0 5.0 0.0 9 25
- 0.608835 5 4 ack 40 ------- 0 5.0 0.0 9 25
- 0.610189 3 4 tcp 1040 ------- 0 0.0 5.0 14 21
r 0.613867 5 4 ack 40 ------- 0 5.0 0.0 9 25
+ 0.613867 4 3 ack 40 ------- 0 5.0 0.0 9 25
- 0.613867 4 3 ack 40 ------- 0 5.0 0.0 9 25
r 0.614096 3 4 tcp 1040 ------- 0 0.0 5.0 11 18
+ 0.614096 4 5 tcp 1040 ------- 0 0.0 5.0 11 18
- 0.614096 4 5 tcp 1040 ------- 0 0.0 5.0 11 18
r 0.614381 4 5 tcp 1040 ------- 0 0.0 5.0 10 17
+ 0.614381 5 4 ack 40 ------- 0 5.0 0.0 10 26
- 0.614381 5 4 ack 40 ------- 0 5.0 0.0 10 26
- 0.615736 3 4 tcp 40 ------- 1 1.0 6.0 0 23
r 0.617987 4 3 ack 40 ------- 0 5.0 0.0 7 22
+ 0.617987 3 0 ack 40 ------- 0 5.0 0.0 7 22
- 0.617987 3 0 ack 40 ------- 0 5.0 0.0 7 22
r 0.619413 5 4 ack 40 ------- 0 5.0 0.0 10 26
+ 0.619413 4 3 ack 40 ------- 0 5.0 0.0 10 26
- 0.619413 4 3 ack 40 ------- 0 5.0 0.0 10 26
r 0.619643 3 4 tcp 1040 ------- 0 0.0 5.0 12 19
+ 0.619643 4 5 tcp 1040 ------- 0 0.0 5.0 12 19
- 0.619643 4 5 tcp 1040 ------- 0 0.0 5.0 12 19
r 0.619928 4 5 tcp 1040 ------- 0 0.0 5.0 11 18
+ 0.619928 5 4 ack 40 ------- 0 5.0 0.0 11 27
- 0.619928 5 4 ack 40 ------- 0 5.0 0.0 11 27
r 0.623019 3 0 ack 40 ------- 0 5.0 0.0 7 22
+ 0.623019 0 3 tcp 1040 ------- 0 0.0 5.0 15 28
- 0.623019 0 3 tcp 1040 ------- 0 0.0 5.0 15 28
+ 0.623019 0 3 tcp 1040 ------- 0 0.0 5.0 16 29
r 0.623533 4 3 ack 40 ------- 0 5.0 0.0 8 24
+ 0.623533 3 0 ack 40 ------- 0 5.0 0.0 8 24
- 0.623533 3 0 ack 40 ------- 0 5.0 0.0 8 24
- 0.623851 0 3 tcp 1040 ------- 0 0.0 5.0 16 29
r 0.62496 5 4 ack 40 ------- 0 5.0 0.0 11 27
+ 0.62496 4 3 ack 40 ------- 0 5.0 0.0 11 27
- 0.62496 4 3 ack 40 ------- 0 5.0 0.0 11 27
r 0.625189 3 4 tcp 1040 ------- 0 0.0 5.0 13 20
+ 0.625189 4 5 tcp 1040 ------- 0 0.0 5.0 13 20
- 0.625189 4 5 tcp 1040 ------- 0 0.0 5.0 13 20
r 0.625475 4 5 tcp 1040 ------- 0 0.0 5.0 12 19
+ 0.625475 5 4 ack 40 ------- 0 5.0 0.0 12 30
- 0.625475 5 4 ack 40 ------- 0 5.0 0.0 12 30
r 0.628565 3 0 ack 40 ------- 0 5.0 0.0 8 24
+ 0.628565 0 3 tcp 1040 ------- 0 0.0 5.0 17 31
- 0.628565 0 3 tcp 1040 ------- 0 0.0 5.0 17 31
+ 0.628565 0 3 tcp 1040 ------- 0 0.0 5.0 18 32
r 0.628851 0 3 tcp 1040 ------- 0 0.0 5.0 15 28
+ 0.628851 3 4 tcp 1040 ------- 0 0.0 5.0 15 28
- 0.628851 3 4 tcp 1040 ------- 0 0.0 5.0 15 28
r 0.62908 4 3 ack 40 ------- 0 5.0 0.0 9 25
+ 0.62908 3 0 ack 40 ------- 0 5.0 0.0 9 25
- 0.62908 3 0 ack 40 ------- 0 5.0 0.0 9 25
- 0.629397 0 3 tcp 1040 ------- 0 0.0 5.0 18 32
r 0.629683 0 3 tcp 1040 ------- 0 0.0 5.0 16 29
+ 0.629683 3 4 tcp 1040 ------- 0 0.0 5.0 16 29
r 0.630507 5 4 ack 40 ------- 0 5.0 0.0 12 30
+ 0.630507 4 3 ack 40 ------- 0 5.0 0.0 12 30
- 0.630507 4 3 ack 40 ------- 0 5.0 0.0 12 30
r 0.630736 3 4 tcp 1040 ------- 0 0.0 5.0 14 21
+ 0.630736 4 5 tcp 1040 ------- 0 0.0 5.0 14 21
- 0.630736 4 5 tcp 1040 ------- 0 0.0 5.0 14 21
r 0.630949 3 4 tcp 40 ------- 1 1.0 6.0 0 23
+ 0.630949 4 6 tcp 40 ------- 1 1.0 6.0 0 23
- 0.630949 4 6 tcp 40 ------- 1 1.0 6.0 0 23
r 0.631021 4 5 tcp 1040 ------- 0 0.0 5.0 13 20
+ 0.631021 5 4 ack 40 ------- 0 5.0 0.0 13 33
- 0.631021 5 4 ack 40 ------- 0 5.0 0.0 13 33
r 0.634112 3 0 ack 40 ------- 0 5.0 0.0 9 25
+ 0.634112 0 3 tcp 1040 ------- 0 0.0 5.0 19 34
- 0.634112 0 3 tcp 1040 ------- 0 0.0 5.0 19 34
+ 0.634112 0 3 tcp 1040 ------- 0 0.0 5.0 20 35
r 0.634397 0 3 tcp 1040 ------- 0 0.0 5.0 17 31
+ 0.634397 3 4 tcp 1040 ------- 0 0.0 5.0 17 31
- 0.634397 3 4 tcp 1040 ------- 0 0.0 5.0 16 29
r 0.634627 4 3 ack 40 ------- 0 5.0 0.0 10 26
+ 0.634627 3 0 ack 40 ------- 0 5.0 0.0 10 26
- 0.634627 3 0 ack 40 ------- 0 5.0 0.0 10 26
- 0.634944 0 3 tcp 1040 ------- 0 0.0 5.0 20 35
r 0.635229 0 3 tcp 1040 ------- 0 0.0 5.0 18 32
+ 0.635229 3 4 tcp 1040 ------- 0 0.0 5.0 18 32
r 0.635981 4 6 tcp 40 ------- 1 1.0 6.0 0 23
+ 0.635981 6 4 ack 40 ------- 1 6.0 1.0 0 36
- 0.635981 6 4 ack 40 ------- 1 6.0 1.0 0 36
r 0.636053 5 4 ack 40 ------- 0 5.0 0.0 13 33
+ 0.636053 4 3 ack 40 ------- 0 5.0 0.0 13 33
- 0.636053 4 3 ack 40 ------- 0 5.0 0.0 13 33
r 0.636568 4 5 tcp 1040 ------- 0 0.0 5.0 14 21
+ 0.636568 5 4 ack 40 ------- 0 5.0 0.0 14 37
- 0.636568 5 4 ack 40 ------- 0 5.0 0.0 14 37
r 0.639659 3 0 ack 40 ------- 0 5.0 0.0 10 26
+ 0.639659 0 3 tcp 1040 ------- 0 0.0 5.0 21 38
- 0.639659 0 3 tcp 1040 ------- 0 0.0 5.0 21 38
+ 0.639659 0 3 tcp 1040 ------- 0 0.0 5.0 22 39
r 0.639944 0 3 tcp 1040 ------- 0 0.0 5.0 19 34
+ 0.639944 3 4 tcp 1040 ------- 0 0.0 5.0 19 34
- 0.639944 3 4 tcp 1040 ------- 0 0.0 5.0 17 31
r 0.640173 4 3 ack 40 ------- 0 5.0 0.0 11 27
+ 0.640173 3 0 ack 40 ------- 0 5.0 0.0 11 27
- 0.640173 3 0 ack 40 ------- 0 5.0 0.0 11 27
- 0.640491 0 3 tcp 1040 ------- 0 0.0 5.0 22 39
r 0.640776 0 3 tcp 1040 ------- 0 0.0 5.0 20 35
+ 0.640776 3 4 tcp 1040 ------- 0 0.0 5.0 20 35
r 0.641013 6 4 ack 40 ------- 1 6.0 1.0 0 36
+ 0.641013 4 3 ack 40 ------- 1 6.0 1.0 0 36
- 0.641013 4 3 ack 40 ------- 1 6.0 1.0 0 36
r 0.6416 5 4 ack 40 ------- 0 5.0 0.0 14 37
+ 0.6416 4 3 ack 40 ------- 0 5.0 0.0 14 37
- 0.6416 4 3 ack 40 ------- 0 5.0 0.0 14 37
r 0.645205 3 0 ack 40 ------- 0 5.0 0.0 11 27
+ 0.645205 0 3 tcp 1040 ------- 0 0.0 5.0 23 40
- 0.645205 0 3 tcp 1040 ------- 0 0.0 5.0 23 40
+ 0.645205 0 3 tcp 1040 ------- 0 0.0 5.0 24 41
r 0.645491 0 3 tcp 1040 ------- 0 0.0 5.0 21 38
+ 0.645491 3 4 tcp 1040 ------- 0 0.0 5.0 21 38
- 0.645491 3 4 tcp 1040 ------- 0 0.0 5.0 18 32
r 0.64572 4 3 ack 40 ------- 0 5.0 0.0 12 30
+ 0.64572 3 0 ack 40 ------- 0 5.0 0.0 12 30
- 0.64572 3 0 ack 40 ------- 0 5.0 0.0 12 30
- 0.646037 0 3 tcp 1040 ------- 0 0.0 5.0 24 41
r 0.646323 0 3 tcp 1040 ------- 0 0.0 5.0 22 39
+ 0.646323 3 4 tcp 1040 ------- 0 0.0 5.0 22 39
r 0.649397 3 4 tcp 1040 ------- 0 0.0 5.0 15 28
+ 0.649397 4 5 tcp 1040 ------- 0 0.0 5.0 15 28
- 0.649397 4 5 tcp 1040 ------- 0 0.0 5.0 15 28
r 0.650752 3 0 ack 40 ------- 0 5.0 0.0 12 30
+ 0.650752 0 3 tcp 1040 ------- 0 0.0 5.0 25 42
- 0.650752 0 3 tcp 1040 ------- 0 0.0 5.0 25 42
+ 0.650752 0 3 tcp 1040 ------- 0 0.0 5.0 26 43
r 0.651037 0 3 tcp 1040 ------- 0 0.0 5.0 23 40
+ 0.651037 3 4 tcp 1040 ------- 0 0.0 5.0 23 40
- 0.651037 3 4 tcp 1040 ------- 0 0.0 5.0 19 34
r 0.651267 4 3 ack 40 ------- 0 5.0 0.0 13 33
+ 0.651267 3 0 ack 40 ------- 0 5.0 0.0 13 33
- 0.651267 3 0 ack 40 ------- 0 5.0 0.0 13 33
- 0.651584 0 3 tcp 1040 ------- 0 0.0 5.0 26 43
r 0.651869 0 3 tcp 1040 ------- 0 0.0 5.0 24 41
+ 0.651869 3 4 tcp 1040 ------- 0 0.0 5.0 24 41
r 0.654944 3 4 tcp 1040 ------- 0 0.0 5.0 16 29
+ 0.654944 4 5 tcp 1040 ------- 0 0.0 5.0 16 29
- 0.654944 4 5 tcp 1040 ------- 0 0.0 5.0 16 29
r 0.655229 4 5 tcp 1040 ------- 0 0.0 5.0 15 28
+ 0.655229 5 4 ack 40 ------- 0 5.0 0.0 15 44
- 0.655229 5 4 ack 40 ------- 0 5.0 0.0 15 44
r 0.656227 4 3 ack 40 ------- 1 6.0 1.0 0 36
+ 0.656227 3 1 ack 40 ------- 1 6.0 1.0 0 36
- 0.656227 3 1 ack 40 ------- 1 6.0 1.0 0 36
r 0.656299 3 0 ack 40 ------- 0 5.0 0.0 13 33
+ 0.656299 0 3 tcp 1040 ------- 0 0.0 5.0 27 45
- 0.656299 0 3 tcp 1040 ------- 0 0.0 5.0 27 45
+ 0.656299 0 3 tcp 1040 ------- 0 0.0 5.0 28 46
r 0.656584 0 3 tcp 1040 ------- 0 0.0 5.0 25 42
+ 0.656584 3 4 tcp 1040 ------- 0 0.0 5.0 25 42
- 0.656584 3 4 tcp 1040 ------- 0 0.0 5.0 20 35
r 0.656813 4 3 ack 40 ------- 0 5.0 0.0 14 37
+ 0.656813 3 0 ack 40 ------- 0 5.0 0.0 14 37
- 0.656813 3 0 ack 40 ------- 0 5.0 0.0 14 37
- 0.657131 0 3 tcp 1040 ------- 0 0.0 5.0 28 46
r 0.657416 0 3 tcp 1040 ------- 0 0.0 5.0 26 43
+ 0.657416 3 4 tcp 1040 ------- 0 0.0 5.0 26 43
r 0.660261 5 4 ack 40 ------- 0 5.0 0.0 15 44
+ 0.660261 4 3 ack 40 ------- 0 5.0 0.0 15 44
- 0.660261 4 3 ack 40 ------- 0 5.0 0.0 15 44
r 0.660491 3 4 tcp 1040 ------- 0 0.0 5.0 17 31
+ 0.660491 4 5 tcp 1040 ------- 0 0.0 5.0 17 31
- 0.660491 4 5 tcp 1040 ------- 0 0.0 5.0 17 31
r 0.660776 4 5 tcp 1040 ------- 0 0.0 5.0 16 29
+ 0.660776 5 4 ack 40 ------- 0 5.0 0.0 16 47
- 0.660776 5 4 ack 40 ------- 0 5.0 0.0 16 47
r 0.661259 3 1 ack 40 ------- 1 6.0 1.0 0 36
+ 0.661259 1 3 tcp 1040 ------- 1 1.0 6.0 1 48
- 0.661259 1 3 tcp 1040 ------- 1 1.0 6.0 1 48
+ 0.661259 1 3 tcp 1040 ------- 1 1.0 6.0 2 49
r 0.661845 3 0 ack 40 ------- 0 5.0 0.0 14 37
+ 0.661845 0 3 tcp 1040 ------- 0 0.0 5.0 29 50
- 0.661845 0 3 tcp 1040 ------- 0 0.0 5.0 29 50
+ 0.661845 0 3 tcp 1040 ------- 0 0.0 5.0 30 51
- 0.662091 1 3 tcp 1040 ------- 1 1.0 6.0 2 49
r 0.662131 0 3 tcp 1040 ------- 0 0.0 5.0 27 45
+ 0.662131 3 4 tcp 1040 ------- 0 0.0 5.0 27 45
- 0.662131 3 4 tcp 1040 ------- 0 0.0 5.0 21 38
- 0.662677 0 3 tcp 1040 ------- 0 0.0 5.0 30 51
r 0.662963 0 3 tcp 1040 ------- 0 0.0 5.0 28 46
+ 0.662963 3 4 tcp 1040 ------- 0 0.0 5.0 28 46
r 0.665808 5 4 ack 40 ------- 0 5.0 0.0 16 47
+ 0.665808 4 3 ack 40 ------- 0 5.0 0.0 16 47
- 0.665808 4 3 ack 40 ------- 0 5.0 0.0 16 47
r 0.666037 3 4 tcp 1040 ------- 0 0.0 5.0 18 32
+ 0.666037 4 5 tcp 1040 ------- 0 0.0 5.0 18 32
- 0.666037 4 5 tcp 1040 ------- 0 0.0 5.0 18 32
r 0.666323 4 5 tcp 1040 ------- 0 0.0 5.0 17 31
+ 0.666323 5 4 ack 40 ------- 0 5.0 0.0 17 52
- 0.666323 5 4 ack 40 ------- 0 5.0 0.0 17 52
r 0.667091 1 3 tcp 1040 ------- 1 1.0 6.0 1 48
+ 0.667091 3 4 tcp 1040 ------- 1 1.0 6.0 1 48
r 0.667677 0 3 tcp 1040 ------- 0 0.0 5.0 29 50
+ 0.667677 3 4 tcp 1040 ------- 0 0.0 5.0 29 50
- 0.667677 3 4 tcp 1040 ------- 0 0.0 5.0 22 39
r 0.667923 1 3 tcp 1040 ------- 1 1.0 6.0 2 49
+ 0.667923 3 4 tcp 1040 ------- 1 1.0 6.0 2 49
r 0.668509 0 3 tcp 1040 ------- 0 0.0 5.0 30 51
+ 0.668509 3 4 tcp 1040 ------- 0 0.0 5.0 30 51
r 0.671355 5 4 ack 40 ------- 0 5.0 0.0 17 52
+ 0.671355 4 3 ack 40 ------- 0 5.0 0.0 17 52
- 0.671355 4 3 ack 40 ------- 0 5.0 0.0 17 52
r 0.671584 3 4 tcp 1040 ------- 0 0.0 5.0 19 34
+ 0.671584 4 5 tcp 1040 ------- 0 0.0 5.0 19 34
- 0.671584 4 5 tcp 1040 ------- 0 0.0 5.0 19 34
r 0.671869 4 5 tcp 1040 ------- 0 0.0 5.0 18 32
+ 0.671869 5 4 ack 40 ------- 0 5.0 0.0 18 53
- 0.671869 5 4 ack 40 ------- 0 5.0 0.0 18 53
- 0.673224 3 4 tcp 1040 ------- 0 0.0 5.0 23 40
r 0.675475 4 3 ack 40 ------- 0 5.0 0.0 15 44
+ 0.675475 3 0 ack 40 ------- 0 5.0 0.0 15 44
- 0.675475 3 0 ack 40 ------- 0 5.0 0.0 15 44
r 0.676901 5 4 ack 40 ------- 0 5.0 0.0 18 53
+ 0.676901 4 3 ack 40 ------- 0 5.0 0.0 18 53
- 0.676901 4 3 ack 40 ------- 0 5.0 0.0 18 53
r 0.677131 3 4 tcp 1040 ------- 0 0.0 5.0 20 35
+ 0.677131 4 5 tcp 1040 ------- 0 0.0 5.0 20 35
- 0.677131 4 5 tcp 1040 ------- 0 0.0 5.0 20 35
r 0.677416 4 5 tcp 1040 ------- 0 0.0 5.0 19 34
+ 0.677416 5 4 ack 40 ------- 0 5.0 0.0 19 54
- 0.677416 5 4 ack 40 ------- 0 5.0 0.0 19 54
- 0.678771 3 4 tcp 1040 ------- 0 0.0 5.0 24 41
r 0.680507 3 0 ack 40 ------- 0 5.0 0.0 15 44
+ 0.680507 0 3 tcp 1040 ------- 0 0.0 5.0 31 55
- 0.680507 0 3 tcp 1040 ------- 0 0.0 5.0 31 55
+ 0.680507 0 3 tcp 1040 ------- 0 0.0 5.0 32 56
r 0.681021 4 3 ack 40 ------- 0 5.0 0.0 16 47
+ 0.681021 3 0 ack 40 ------- 0 5.0 0.0 16 47
- 0.681021 3 0 ack 40 ------- 0 5.0 0.0 16 47
- 0.681339 0 3 tcp 1040 ------- 0 0.0 5.0 32 56
r 0.682448 5 4 ack 40 ------- 0 5.0 0.0 19 54
+ 0.682448 4 3 ack 40 ------- 0 5.0 0.0 19 54
- 0.682448 4 3 ack 40 ------- 0 5.0 0.0 19 54
r 0.682677 3 4 tcp 1040 ------- 0 0.0 5.0 21 38
+ 0.682677 4 5 tcp 1040 ------- 0 0.0 5.0 21 38
- 0.682677 4 5 tcp 1040 ------- 0 0.0 5.0 21 38
r 0.682963 4 5 tcp 1040 ------- 0 0.0 5.0 20 35
+ 0.682963 5 4 ack 40 ------- 0 5.0 0.0 20 57
- 0.682963 5 4 ack 40 ------- 0 5.0 0.0 20 57
- 0.684317 3 4 tcp 1040 ------- 0 0.0 5.0 25 42
r 0.686053 3 0 ack 40 ------- 0 5.0 0.0 16 47
+ 0.686053 0 3 tcp 1040 ------- 0 0.0 5.0 33 58
- 0.686053 0 3 tcp 1040 ------- 0 0.0 5.0 33 58
+ 0.686053 0 3 tcp 1040 ------- 0 0.0 5.0 34 59
r 0.686339 0 3 tcp 1040 ------- 0 0.0 5.0 31 55
+ 0.686339 3 4 tcp 1040 ------- 0 0.0 5.0 31 55
r 0.686568 4 3 ack 40 ------- 0 5.0 0.0 17 52
+ 0.686568 3 0 ack 40 ------- 0 5.0 0.0 17 52
- 0.686568 3 0 ack 40 ------- 0 5.0 0.0 17 52
- 0.686885 0 3 tcp 1040 ------- 0 0.0 5.0 34 59
r 0.687171 0 3 tcp 1040 ------- 0 0.0 5.0 32 56
+ 0.687171 3 4 tcp 1040 ------- 0 0.0 5.0 32 56
r 0.687995 5 4 ack 40 ------- 0 5.0 0.0 20 57
+ 0.687995 4 3 ack 40 ------- 0 5.0 0.0 20 57
- 0.687995 4 3 ack 40 ------- 0 5.0 0.0 20 57
r 0.688224 3 4 tcp 1040 ------- 0 0.0 5.0 22 39
+ 0.688224 4 5 tcp 1040 ------- 0 0.0 5.0 22 39
- 0.688224 4 5 tcp 1040 ------- 0 0.0 5.0 22 39
r 0.688509 4 5 tcp 1040 ------- 0 0.0 5.0 21 38
+ 0.688509 5 4 ack 40 ------- 0 5.0 0.0 21 60
- 0.688509 5 4 ack 40 ------- 0 5.0 0.0 21 60
- 0.689864 3 4 tcp 1040 ------- 0 0.0 5.0 26 43
r 0.6916 3 0 ack 40 ------- 0 5.0 0.0 17 52
+ 0.6916 0 3 tcp 1040 ------- 0 0.0 5.0 35 61
- 0.6916 0 3 tcp 1040 ------- 0 0.0 5.0 35 61
+ 0.6916 0 3 tcp 1040 ------- 0 0.0 5.0 36 62
r 0.691885 0 3 tcp 1040 ------- 0 0.0 5.0 33 58
+ 0.691885 3 4 tcp 1040 ------- 0 0.0 5.0 33 58
r 0.692115 4 3 ack 40 ------- 0 5.0 0.0 18 53
+ 0.692115 3 0 ack 40 ------- 0 5.0 0.0 18 53
- 0.692115 3 0 ack 40 ------- 0 5.0 0.0 18 53
- 0.692432 0 3 tcp 1040 ------- 0 0.0 5.0 36 62
r 0.692717 0 3 tcp 1040 ------- 0 0.0 5.0 34 59
+ 0.692717 3 4 tcp 1040 ------- 0 0.0 5.0 34 59
r 0.693541 5 4 ack 40 ------- 0 5.0 0.0 21 60
+ 0.693541 4 3 ack 40 ------- 0 5.0 0.0 21 60
- 0.693541 4 3 ack 40 ------- 0 5.0 0.0 21 60
r 0.693771 3 4 tcp 1040 ------- 0 0.0 5.0 23 40
+ 0.693771 4 5 tcp 1040 ------- 0 0.0 5.0 23 40
- 0.693771 4 5 tcp 1040 ------- 0 0.0 5.0 23 40
r 0.694056 4 5 tcp 1040 ------- 0 0.0 5.0 22 39
+ 0.694056 5 4 ack 40 ------- 0 5.0 0.0 22 63
- 0.694056 5 4 ack 40 ------- 0 5.0 0.0 22 63
- 0.695411 3 4 tcp 1040 ------- 0 0.0 5.0 27 45
r 0.697147 3 0 ack 40 ------- 0 5.0 0.0 18 53
+ 0.697147 0 3 tcp 1040 ------- 0 0.0 5.0 37 64
- 0.697147 0 3 tcp 1040 ------- 0 0.0 5.0 37 64
+ 0.697147 0 3 tcp 1040 ------- 0 0.0 5.0 38 65
r 0.697432 0 3 tcp 1040 ------- 0 0.0 5.0 35 61
+ 0.697432 3 4 tcp 1040 ------- 0 0.0 5.0 35 61
r 0.697661 4 3 ack 40 ------- 0 5.0 0.0 19 54
+ 0.697661 3 0 ack 40 ------- 0 5.0 0.0 19 54
- 0.697661 3 0 ack 40 ------- 0 5.0 0.0 19 54
- 0.697979 0 3 tcp 1040 ------- 0 0.0 5.0 38 65
r 0.698264 0 3 tcp 1040 ------- 0 0.0 5.0 36 62
+ 0.698264 3 4 tcp 1040 ------- 0 0.0 5.0 36 62
r 0.699088 5 4 ack 40 ------- 0 5.0 0.0 22 63
+ 0.699088 4 3 ack 40 ------- 0 5.0 0.0 22 63
- 0.699088 4 3 ack 40 ------- 0 5.0 0.0 22 63
r 0.699317 3 4 tcp 1040 ------- 0 0.0 5.0 24 41
+ 0.699317 4 5 tcp 1040 ------- 0 0.0 5.0 24 41
- 0.699317 4 5 tcp 1040 ------- 0 0.0 5.0 24 41
r 0.699603 4 5 tcp 1040 ------- 0 0.0 5.0 23 40
+ 0.699603 5 4 ack 40 ------- 0 5.0 0.0 23 66
- 0.699603 5 4 ack 40 ------- 0 5.0 0.0 23 66
- 0.700957 3 4 tcp 1040 ------- 0 0.0 5.0 28 46
r 0.702693 3 0 ack 40 ------- 0 5.0 0.0 19 54
+ 0.702693 0 3 tcp 1040 ------- 0 0.0 5.0 39 67
- 0.702693 0 3 tcp 1040 ------- 0 0.0 5.0 39 67
+ 0.702693 0 3 tcp 1040 ------- 0 0.0 5.0 40 68
r 0.702979 0 3 tcp 1040 ------- 0 0.0 5.0 37 64
+ 0.702979 3 4 tcp 1040 ------- 0 0.0 5.0 37 64
r 0.703208 4 3 ack 40 ------- 0 5.0 0.0 20 57
+ 0.703208 3 0 ack 40 ------- 0 5.0 0.0 20 57
- 0.703208 3 0 ack 40 ------- 0 5.0 0.0 20 57
- 0.703525 0 3 tcp 1040 ------- 0 0.0 5.0 40 68
r 0.703811 0 3 tcp 1040 ------- 0 0.0 5.0 38 65
+ 0.703811 3 4 tcp 1040 ------- 0 0.0 5.0 38 65
r 0.704635 5 4 ack 40 ------- 0 5.0 0.0 23 66
+ 0.704635 4 3 ack 40 ------- 0 5.0 0.0 23 66
- 0.704635 4 3 ack 40 ------- 0 5.0 0.0 23 66
r 0.704864 3 4 tcp 1040 ------- 0 0.0 5.0 25 42
+ 0.704864 4 5 tcp 1040 ------- 0 0.0 5.0 25 42
- 0.704864 4 5 tcp 1040 ------- 0 0.0 5.0 25 42
r 0.705149 4 5 tcp 1040 ------- 0 0.0 5.0 24 41
+ 0.705149 5 4 ack 40 ------- 0 5.0 0.0 24 69
- 0.705149 5 4 ack 40 ------- 0 5.0 0.0 24 69
- 0.706504 3 4 tcp 1040 ------- 1 1.0 6.0 1 48
r 0.70824 3 0 ack 40 ------- 0 5.0 0.0 20 57
+ 0.70824 0 3 tcp 1040 ------- 0 0.0 5.0 41 70
- 0.70824 0 3 tcp 1040 ------- 0 0.0 5.0 41 70
+ 0.70824 0 3 tcp 1040 ------- 0 0.0 5.0 42 71
r 0.708525 0 3 tcp 1040 ------- 0 0.0 5.0 39 67
+ 0.708525 3 4 tcp 1040 ------- 0 0.0 5.0 39 67
r 0.708755 4 3 ack 40 ------- 0 5.0 0.0 21 60
+ 0.708755 3 0 ack 40 ------- 0 5.0 0.0 21 60
- 0.708755 3 0 ack 40 ------- 0 5.0 0.0 21 60
- 0.709072 0 3 tcp 1040 ------- 0 0.0 5.0 42 71
r 0.709357 0 3 tcp 1040 ------- 0 0.0 5.0 40 68
+ 0.709357 3 4 tcp 1040 ------- 0 0.0 5.0 40 68
r 0.710181 5 4 ack 40 ------- 0 5.0 0.0 24 69
+ 0.710181 4 3 ack 40 ------- 0 5.0 0.0 24 69
- 0.710181 4 3 ack 40 ------- 0 5.0 0.0 24 69
r 0.710411 3 4 tcp 1040 ------- 0 0.0 5.0 26 43
+ 0.710411 4 5 tcp 1040 ------- 0 0.0 5.0 26 43
- 0.710411 4 5 tcp 1040 ------- 0 0.0 5.0 26 43
r 0.710696 4 5 tcp 1040 ------- 0 0.0 5.0 25 42
+ 0.710696 5 4 ack 40 ------- 0 5.0 0.0 25 72
- 0.710696 5 4 ack 40 ------- 0 5.0 0.0 25 72
- 0.712051 3 4 tcp 1040 ------- 0 0.0 5.0 29 50
r 0.713787 3 0 ack 40 ------- 0 5.0 0.0 21 60
+ 0.713787 0 3 tcp 1040 ------- 0 0.0 5.0 43 73
- 0.713787 0 3 tcp 1040 ------- 0 0.0 5.0 43 73
+ 0.713787 0 3 tcp 1040 ------- 0 0.0 5.0 44 74
r 0.714072 0 3 tcp 1040 ------- 0 0.0 5.0 41 70
+ 0.714072 3 4 tcp 1040 ------- 0 0.0 5.0 41 70
r 0.714301 4 3 ack 40 ------- 0 5.0 0.0 22 63
+ 0.714301 3 0 ack 40 ------- 0 5.0 0.0 22 63
- 0.714301 3 0 ack 40 ------- 0 5.0 0.0 22 63
- 0.714619 0 3 tcp 1040 ------- 0 0.0 5.0 44 74
r 0.714904 0 3 tcp 1040 ------- 0 0.0 5.0 42 71
+ 0.714904 3 4 tcp 1040 ------- 0 0.0 5.0 42 71
r 0.715728 5 4 ack 40 ------- 0 5.0 0.0 25 72
+ 0.715728 4 3 ack 40 ------- 0 5.0 0.0 25 72
- 0.715728 4 3 ack 40 ------- 0 5.0 0.0 25 72
r 0.715957 3 4 tcp 1040 ------- 0 0.0 5.0 27 45
+ 0.715957 4 5 tcp 1040 ------- 0 0.0 5.0 27 45
- 0.715957 4 5 tcp 1040 ------- 0 0.0 5.0 27 45
r 0.716243 4 5 tcp 1040 ------- 0 0.0 5.0 26 43
+ 0.716243 5 4 ack 40 ------- 0 5.0 0.0 26 75
- 0.716243 5 4 ack 40 ------- 0 5.0 0.0 26 75
- 0.717597 3 4 tcp 1040 ------- 1 1.0 6.0 2 49
r 0.719333 3 0 ack 40 ------- 0 5.0 0.0 22 63
+ 0.719333 0 3 tcp 1040 ------- 0 0.0 5.0 45 76
- 0.719333 0 3 tcp 1040 ------- 0 0.0 5.0 45 76
+ 0.719333 0 3 tcp 1040 ------- 0 0.0 5.0 46 77
r 0.719619 0 3 tcp 1040 ------- 0 0.0 5.0 43 73
+ 0.719619 3 4 tcp 1040 ------- 0 0.0 5.0 43 73
r 0.719848 4 3 ack 40 ------- 0 5.0 0.0 23 66
+ 0.719848 3 0 ack 40 ------- 0 5.0 0.0 23 66
- 0.719848 3 0 ack 40 ------- 0 5.0 0.0 23 66
- 0.720165 0 3 tcp 1040 ------- 0 0.0 5.0 46 77
r 0.720451 0 3 tcp 1040 ------- 0 0.0 5.0 44 74
+ 0.720451 3 4 tcp 1040 ------- 0 0.0 5.0 44 74
r 0.721275 5 4 ack 40 ------- 0 5.0 0.0 26 75
+ 0.721275 4 3 ack 40 ------- 0 5.0 0.0 26 75
- 0.721275 4 3 ack 40 ------- 0 5.0 0.0 26 75
r 0.721504 3 4 tcp 1040 ------- 0 0.0 5.0 28 46
+ 0.721504 4 5 tcp 1040 ------- 0 0.0 5.0 28 46
- 0.721504 4 5 tcp 1040 ------- 0 0.0 5.0 28 46
r 0.721789 4 5 tcp 1040 ------- 0 0.0 5.0 27 45
+ 0.721789 5 4 ack 40 ------- 0 5.0 0.0 27 78
- 0.721789 5 4 ack 40 ------- 0 5.0 0.0 27 78
- 0.723144 3 4 tcp 1040 ------- 0 0.0 5.0 30 51
r 0.72488 3 0 ack 40 ------- 0 5.0 0.0 23 66
+ 0.72488 0 3 tcp 1040 ------- 0 0.0 5.0 47 79
- 0.72488 0 3 tcp 1040 ------- 0 0.0 5.0 47 79
+ 0.72488 0 3 tcp 1040 ------- 0 0.0 5.0 48 80
r 0.725165 0 3 tcp 1040 ------- 0 0.0 5.0 45 76
+ 0.725165 3 4 tcp 1040 ------- 0 0.0 5.0 45 76
r 0.725395 4 3 ack 40 ------- 0 5.0 0.0 24 69
+ 0.725395 3 0 ack 40 ------- 0 5.0 0.0 24 69
- 0.725395 3 0 ack 40 ------- 0 5.0 0.0 24 69
- 0.725712 0 3 tcp 1040 ------- 0 0.0 5.0 48 80
r 0.725997 0 3 tcp 1040 ------- 0 0.0 5.0 46 77
+ 0.725997 3 4 tcp 1040 ------- 0 0.0 5.0 46 77
r 0.726821 5 4 ack 40 ------- 0 5.0 0.0 27 78
+ 0.726821 4 3 ack 40 ------- 0 5.0 0.0 27 78
- 0.726821 4 3 ack 40 ------- 0 5.0 0.0 27 78
r 0.727051 3 4 tcp 1040 ------- 1 1.0 6.0 1 48
+ 0.727051 4 6 tcp 1040 ------- 1 1.0 6.0 1 48
- 0.727051 4 6 tcp 1040 ------- 1 1.0 6.0 1 48
r 0.727336 4 5 tcp 1040 ------- 0 0.0 5.0 28 46
+ 0.727336 5 4 ack 40 ------- 0 5.0 0.0 28 81
- 0.727336 5 4 ack 40 ------- 0 5.0 0.0 28 81
- 0.728691 3 4 tcp 1040 ------- 0 0.0 5.0 31 55
r 0.730427 3 0 ack 40 ------- 0 5.0 0.0 24 69
+ 0.730427 0 3 tcp 1040 ------- 0 0.0 5.0 49 82
- 0.730427 0 3 tcp 1040 ------- 0 0.0 5.0 49 82
+ 0.730427 0 3 tcp 1040 ------- 0 0.0 5.0 50 83
r 0.730712 0 3 tcp 1040 ------- 0 0.0 5.0 47 79
+ 0.730712 3 4 tcp 1040 ------- 0 0.0 5.0 47 79
r 0.730941 4 3 ack 40 ------- 0 5.0 0.0 25 72
+ 0.730941 3 0 ack 40 ------- 0 5.0 0.0 25 72
- 0.730941 3 0 ack 40 ------- 0 5.0 0.0 25 72
- 0.731259 0 3 tcp 1040 ------- 0 0.0 5.0 50 83
r 0.731544 0 3 tcp 1040 ------- 0 0.0 5.0 48 80
+ 0.731544 3 4 tcp 1040 ------- 0 0.0 5.0 48 80
r 0.732368 5 4 ack 40 ------- 0 5.0 0.0 28 81
+ 0.732368 4 3 ack 40 ------- 0 5.0 0.0 28 81
- 0.732368 4 3 ack 40 ------- 0 5.0 0.0 28 81
r 0.732597 3 4 tcp 1040 ------- 0 0.0 5.0 29 50
+ 0.732597 4 5 tcp 1040 ------- 0 0.0 5.0 29 50
- 0.732597 4 5 tcp 1040 ------- 0 0.0 5.0 29 50
r 0.732883 4 6 tcp 1040 ------- 1 1.0 6.0 1 48
+ 0.732883 6 4 ack 40 ------- 1 6.0 1.0 1 84
- 0.732883 6 4 ack 40 ------- 1 6.0 1.0 1 84
- 0.734237 3 4 tcp 1040 ------- 0 0.0 5.0 32 56
r 0.735973 3 0 ack 40 ------- 0 5.0 0.0 25 72
+ 0.735973 0 3 tcp 1040 ------- 0 0.0 5.0 51 85
- 0.735973 0 3 tcp 1040 ------- 0 0.0 5.0 51 85
+ 0.735973 0 3 tcp 1040 ------- 0 0.0 5.0 52 86
r 0.736259 0 3 tcp 1040 ------- 0 0.0 5.0 49 82
+ 0.736259 3 4 tcp 1040 ------- 0 0.0 5.0 49 82
r 0.736488 4 3 ack 40 ------- 0 5.0 0.0 26 75
+ 0.736488 3 0 ack 40 ------- 0 5.0 0.0 26 75
- 0.736488 3 0 ack 40 ------- 0 5.0 0.0 26 75
- 0.736805 0 3 tcp 1040 ------- 0 0.0 5.0 52 86